/*--------------------------------*- C++ -*----------------------------------*\
| =========                 |                                                 |
| \\      /  F ield         | OpenFOAM: The Open Source CFD Toolbox           |
|  \\    /   O peration     | Version:  v1706                                 |
|   \\  /    A nd           | Web:      www.OpenFOAM.com                      |
|    \\/     M anipulation  |                                                 |
\*---------------------------------------------------------------------------*/
FoamFile
{
    version     2.0;
    format      ascii;
    class       surfaceScalarField;
    location    "0.5";
    object      alphaPhi10;
}
// * * * * * * * * * * * * * * * * * * * * * * * * * * * * * * * * * * * * * //

dimensions      [0 3 -1 0 0 0 0];
oriented        oriented;


internalField   nonuniform List<scalar> 
284639
(
1.46055e-07
7.56661e-11
-1.45934e-07
-1.96077e-10
2.63703e-10
-1.44785e-07
1.44928e-07
-4.07059e-10
4.12021e-10
-1.43083e-07
1.43363e-07
-6.91839e-10
6.02896e-10
-1.40497e-07
1.40995e-07
-1.10101e-09
7.68863e-10
-1.37177e-07
1.37839e-07
-1.4307e-09
9.77334e-10
-1.33431e-07
1.34283e-07
-1.83017e-09
1.21641e-09
-1.28588e-07
1.29722e-07
-2.3508e-09
1.46604e-09
-1.2271e-07
1.24104e-07
-2.86037e-09
1.69244e-09
-1.15651e-07
1.17392e-07
-3.43369e-09
1.92841e-09
-1.07415e-07
1.09461e-07
-3.97434e-09
2.19297e-09
-9.79551e-08
1.00367e-07
-4.60496e-09
2.46048e-09
-8.72755e-08
9.00352e-08
-5.22015e-09
2.68733e-09
-7.53413e-08
7.8424e-08
-5.76992e-09
2.8975e-09
-6.20961e-08
6.55437e-08
-6.34501e-09
3.06968e-09
-4.76428e-08
5.14058e-08
-6.83262e-09
3.23335e-09
-3.21993e-08
3.61419e-08
-7.17593e-09
3.39771e-09
-1.65866e-08
2.05345e-08
-7.34554e-09
3.70353e-09
-5.36234e-11
4.36754e-09
-8.01742e-09
4.02767e-09
1.74807e-08
-1.2868e-08
-8.64025e-09
4.08461e-09
3.58185e-08
-3.11059e-08
-8.79708e-09
4.20522e-09
5.45156e-08
-4.96966e-08
-9.02404e-09
4.31682e-09
7.35665e-08
-6.86225e-08
-9.26051e-09
4.28918e-09
9.26816e-08
-8.77481e-08
-9.22221e-09
4.19977e-09
1.11753e-07
-1.06893e-07
-9.05987e-09
4.11982e-09
1.30465e-07
-1.25634e-07
-8.95054e-09
4.09454e-09
1.48665e-07
-1.44027e-07
-8.73274e-09
3.90747e-09
1.66075e-07
-1.61709e-07
-8.27352e-09
3.68758e-09
1.82472e-07
-1.78443e-07
-7.7163e-09
3.40074e-09
1.97558e-07
-1.93757e-07
-7.20091e-09
3.02038e-09
2.11279e-07
-2.07891e-07
-6.40805e-09
2.59112e-09
2.23391e-07
-2.20437e-07
-5.54425e-09
2.13497e-09
2.33716e-07
-2.3125e-07
-4.60014e-09
1.63108e-09
2.42006e-07
-2.40098e-07
-3.53929e-09
1.14059e-09
2.48121e-07
-2.46761e-07
-2.50013e-09
5.96419e-10
2.52096e-07
-2.51307e-07
-1.3857e-09
-4.95405e-11
2.53655e-07
-2.5349e-07
-1.16042e-10
-5.99904e-10
2.52813e-07
-2.53162e-07
9.49568e-10
-1.17712e-09
2.49613e-07
-2.50574e-07
2.13833e-09
-1.77539e-09
2.43929e-07
-2.45498e-07
3.34511e-09
-2.37019e-09
2.35891e-07
-2.38053e-07
4.53191e-09
-3.00215e-09
2.25516e-07
-2.28268e-07
5.75421e-09
-3.56186e-09
2.12997e-07
-2.16302e-07
6.8669e-09
-4.17673e-09
1.9837e-07
-2.02238e-07
8.04575e-09
-4.79969e-09
1.81764e-07
-1.86192e-07
9.22789e-09
-5.31027e-09
1.63429e-07
-1.6831e-07
1.01913e-08
-5.72362e-09
1.43544e-07
-1.48841e-07
1.10211e-08
-6.04503e-09
1.22341e-07
-1.27941e-07
1.1646e-08
-6.19883e-09
1.00082e-07
-1.05883e-07
1.19998e-08
-6.28986e-09
7.7065e-08
-8.3003e-08
1.2228e-08
-6.38277e-09
5.33325e-08
-5.93291e-08
1.23794e-08
-6.55201e-09
2.93808e-08
-3.55276e-08
1.26989e-08
-6.63283e-09
5.02662e-09
-1.13081e-08
1.29143e-08
-6.2031e-09
-1.84909e-08
1.2637e-08
1.20571e-08
-6.00974e-09
-4.16857e-08
3.60123e-08
1.16834e-08
-5.72589e-09
-6.40913e-08
5.87052e-08
1.11124e-08
-5.40642e-09
-8.53371e-08
8.02735e-08
1.04706e-08
-5.08478e-09
-1.05292e-07
1.00522e-07
9.85544e-09
-4.63032e-09
-1.23715e-07
1.19387e-07
8.95952e-09
-4.21873e-09
-1.40435e-07
1.36505e-07
8.1491e-09
-3.69759e-09
-1.55248e-07
1.5185e-07
7.09662e-09
-3.25003e-09
-1.68152e-07
1.65182e-07
6.22178e-09
-2.7172e-09
-1.78959e-07
1.76532e-07
5.14598e-09
-2.20235e-09
-1.87627e-07
1.8573e-07
4.10108e-09
-1.72866e-09
-1.94173e-07
1.92776e-07
3.12863e-09
-1.14306e-09
-1.98332e-07
1.97549e-07
1.92886e-09
-5.95143e-10
-2.00233e-07
1.99995e-07
8.35241e-10
-4.69436e-11
-1.99968e-07
2.00271e-07
-2.5399e-10
3.2449e-10
-1.98025e-07
1.9866e-07
-9.57082e-10
8.02812e-10
-1.94351e-07
1.95455e-07
-1.90531e-09
1.17996e-09
-1.89146e-07
1.90589e-07
-2.62169e-09
1.48092e-09
-1.82739e-07
1.84441e-07
-3.18075e-09
1.82613e-09
-1.75145e-07
1.77155e-07
-3.83373e-09
2.06236e-09
-1.6642e-07
1.6865e-07
-4.29067e-09
2.24011e-09
-1.57066e-07
1.59478e-07
-4.65014e-09
2.37685e-09
-1.4703e-07
1.49558e-07
-4.90334e-09
2.43768e-09
-1.36375e-07
1.38946e-07
-5.00772e-09
2.39905e-09
-1.25655e-07
1.28201e-07
-4.94288e-09
2.30321e-09
-1.15103e-07
1.17585e-07
-4.78285e-09
2.34149e-09
-1.04923e-07
1.07443e-07
-4.8608e-09
2.43821e-09
-9.43279e-08
9.69706e-08
-5.08022e-09
2.00123e-09
-8.45629e-08
8.67915e-08
-4.22886e-09
2.63843e-09
-7.44401e-08
7.7134e-08
-5.33209e-09
3.48139e-09
-6.61924e-08
6.89104e-08
-6.19911e-09
3.4816e-09
-5.78163e-08
6.0521e-08
-6.18605e-09
3.34802e-09
-4.97918e-08
5.24051e-08
-5.9611e-09
3.2839e-09
-4.25554e-08
4.50247e-08
-5.75302e-09
3.25047e-09
-3.60025e-08
3.82787e-08
-5.52652e-09
1.92946e-09
-3.04655e-08
3.19979e-08
-3.46176e-09
1.11832e-09
-2.44905e-08
2.64562e-08
-3.08392e-09
1.07314e-09
-1.98635e-08
2.1743e-08
-2.95261e-09
8.51821e-10
-1.60237e-08
1.76618e-08
-2.48987e-09
3.17854e-10
-1.203e-08
1.37641e-08
-2.05185e-09
7.29473e-10
-9.70876e-09
1.10989e-08
-2.11962e-09
2.23014e-10
-6.7293e-09
8.01049e-09
-1.50416e-09
6.95251e-10
-4.84019e-09
5.81239e-09
-1.66742e-09
1.42098e-09
-3.09744e-09
4.30006e-09
-2.62356e-09
-4.63892e-10
-2.13581e-10
1.12262e-09
-4.45141e-10
-4.22651e-10
1.43583e-09
-2.19245e-10
-7.93924e-10
4.24618e-10
2.33918e-09
-1.39825e-09
-1.36554e-09
1.47255e-09
2.13162e-09
-1.1725e-09
-2.43162e-09
-3.0708e-10
3.77245e-09
-3.04222e-09
-4.23146e-10
-6.66292e-10
5.45133e-09
-4.60497e-09
-1.80087e-10
-6.6447e-10
6.18381e-09
-5.26713e-09
-2.52228e-10
-5.66632e-10
6.80018e-09
-5.86353e-09
-3.70022e-10
-1.58406e-10
7.06495e-09
-6.10785e-09
-7.98686e-10
-4.09651e-10
7.70959e-09
-6.97931e-09
-3.20627e-10
5.41429e-10
8.65958e-09
-7.97241e-09
-1.22862e-09
-4.54698e-10
8.26838e-09
-8.55065e-09
7.37041e-10
-8.86713e-11
9.07601e-09
-9.10084e-09
1.13554e-10
-7.95934e-10
9.44527e-09
-1.01001e-08
1.45082e-09
2.27068e-10
1.01389e-08
-9.94307e-09
-4.22841e-10
-2.34883e-10
1.074e-08
-1.08518e-08
3.46822e-10
-7.53681e-11
1.12049e-08
-1.11822e-08
5.2819e-11
-6.14879e-10
1.14726e-08
-1.19466e-08
1.08894e-09
1.34864e-10
1.22093e-08
-1.20691e-08
-2.75022e-10
-4.81431e-10
1.22444e-08
-1.25865e-08
8.23662e-10
1.85376e-10
1.29129e-08
-1.27593e-08
-3.38977e-10
-4.1683e-10
1.29783e-08
-1.32708e-08
7.09375e-10
2.36001e-10
1.36577e-08
-1.35085e-08
-3.8519e-10
-5.56559e-11
1.43894e-08
-1.43679e-08
3.41848e-11
-1.71623e-10
1.44496e-08
-1.45271e-08
2.49189e-10
-4.95644e-11
1.44943e-08
-1.44627e-08
1.81067e-11
2.14407e-11
1.47756e-08
-1.47244e-08
-7.25924e-11
8.62377e-11
1.46953e-08
-1.45395e-08
-2.41987e-10
3.90495e-10
1.52925e-08
-1.49439e-08
-7.39035e-10
2.04983e-10
1.55326e-08
-1.52573e-08
-4.80227e-10
-1.65006e-10
1.55483e-08
-1.56125e-08
2.29294e-10
6.01048e-10
1.59044e-08
-1.53732e-08
-1.13223e-09
2.84929e-10
1.62075e-08
-1.58417e-08
-6.50648e-10
4.04188e-10
1.62789e-08
-1.58109e-08
-8.72142e-10
-1.24868e-10
1.62879e-08
-1.63035e-08
1.40598e-10
4.34061e-10
1.6484e-08
-1.60833e-08
-8.34815e-10
4.42251e-10
1.65197e-08
-1.60266e-08
-9.35248e-10
-2.22587e-10
1.64651e-08
-1.66849e-08
4.42505e-10
3.20857e-10
1.69152e-08
-1.65879e-08
-6.48163e-10
3.0952e-10
1.68083e-08
-1.64738e-08
-6.44033e-10
1.76309e-10
1.71221e-08
-1.69327e-08
-3.65689e-10
4.35759e-10
1.69574e-08
-1.6553e-08
-8.40134e-10
1.62904e-10
1.73033e-08
-1.71598e-08
-3.06345e-10
2.04245e-10
1.70823e-08
-1.6905e-08
-3.81587e-10
1.37009e-10
1.65303e-08
-1.63934e-08
-2.7391e-10
2.27937e-10
1.65251e-08
-1.63108e-08
-4.42182e-10
1.75915e-10
1.64129e-08
-1.62236e-08
-3.65199e-10
1.04847e-10
1.65567e-08
-1.64532e-08
-2.0833e-10
5.57485e-11
1.62127e-08
-1.616e-08
-1.08479e-10
1.53103e-10
1.5794e-08
-1.56243e-08
-3.22722e-10
8.21953e-11
1.58547e-08
-1.57571e-08
-1.79789e-10
3.22483e-11
1.55534e-08
-1.55096e-08
-7.60345e-11
5.23048e-11
1.50808e-08
-1.50136e-08
-1.19468e-10
4.3505e-11
1.48498e-08
-1.47801e-08
-1.1328e-10
2.06248e-11
1.46071e-08
-1.45609e-08
-6.67658e-11
5.26648e-12
1.42715e-08
-1.42375e-08
-3.92879e-11
7.12704e-11
1.41354e-08
-1.40417e-08
-1.65047e-10
1.60404e-11
1.3902e-08
-1.38616e-08
-5.64271e-11
-8.36249e-12
1.35587e-08
-1.35419e-08
-8.46317e-12
-5.00432e-11
1.30947e-08
-1.31157e-08
7.10908e-11
6.40101e-11
1.27046e-08
-1.26154e-08
-1.53205e-10
1.06982e-11
1.2524e-08
-1.24773e-08
-5.73538e-11
-1.31761e-11
1.21754e-08
-1.21559e-08
-6.31138e-12
2.37702e-11
1.1779e-08
-1.1726e-08
-7.68314e-11
-2.11504e-12
1.1511e-08
-1.14757e-08
-3.32414e-11
1.02034e-11
1.11714e-08
-1.11223e-08
-5.92431e-11
1.21416e-10
1.09328e-08
-1.0798e-08
-2.56223e-10
7.18076e-11
1.06213e-08
-1.05099e-08
-1.83257e-10
8.85856e-11
1.02945e-08
-1.01656e-08
-2.17556e-10
1.11301e-10
9.98589e-09
-9.83559e-09
-2.61597e-10
6.7811e-11
9.70767e-09
-9.60309e-09
-1.72393e-10
7.51347e-11
9.34997e-09
-9.23843e-09
-1.86674e-10
1.48719e-10
9.15865e-09
-8.97343e-09
-3.33938e-10
9.98258e-11
8.9058e-09
-8.77093e-09
-2.34697e-10
8.02459e-11
8.59561e-09
-8.48136e-09
-1.94503e-10
5.16001e-11
8.27675e-09
-8.19224e-09
-1.36107e-10
1.04904e-10
8.03549e-09
-7.89855e-09
-2.41851e-10
5.7796e-11
7.83076e-09
-7.73504e-09
-1.53519e-10
5.22793e-11
7.51373e-09
-7.43241e-09
-1.33602e-10
9.57476e-11
7.30583e-09
-7.18291e-09
-2.18663e-10
7.79019e-11
7.08915e-09
-6.98495e-09
-1.82106e-10
7.45757e-11
6.84025e-09
-6.73944e-09
-1.75387e-10
8.20623e-11
6.61886e-09
-6.51106e-09
-1.89856e-10
7.18293e-11
6.41789e-09
-6.32074e-09
-1.68982e-10
6.37113e-11
6.18387e-09
-6.09484e-09
-1.52746e-10
6.59033e-11
5.96828e-09
-5.87668e-09
-1.57505e-10
6.13125e-11
5.77564e-09
-5.68889e-09
-1.48067e-10
5.61293e-11
5.58188e-09
-5.50233e-09
-1.35681e-10
5.73592e-11
5.38424e-09
-5.30436e-09
-1.37249e-10
5.73478e-11
5.20994e-09
-5.13096e-09
-1.36333e-10
5.21333e-11
5.03106e-09
-4.95655e-09
-1.26642e-10
7.90198e-11
4.88645e-09
-4.78758e-09
-1.7789e-10
3.29898e-11
4.73816e-09
-4.66169e-09
-1.09459e-10
2.30838e-11
4.49581e-09
-4.46341e-09
-5.54841e-11
2.02926e-11
4.3417e-09
-4.30814e-09
-5.38517e-11
1.17062e-11
4.22083e-09
-4.17194e-09
-6.05957e-11
6.79944e-12
4.05672e-09
-4.0405e-09
-2.30205e-11
1.23954e-11
3.90496e-09
-3.88307e-09
-3.42912e-11
1.18677e-11
3.76943e-09
-3.74282e-09
-3.84845e-11
1.33438e-11
3.65235e-09
-3.62107e-09
-4.46213e-11
5.92446e-12
3.52051e-09
-3.50388e-09
-2.25491e-11
4.95022e-12
3.39067e-09
-3.3712e-09
-2.44231e-11
2.40494e-12
3.26545e-09
-3.24458e-09
-2.32731e-11
6.96598e-12
3.15526e-09
-3.12517e-09
-3.70641e-11
1.15909e-11
3.0553e-09
-3.02362e-09
-4.32756e-11
4.99271e-12
2.93997e-09
-2.9199e-09
-2.50681e-11
8.94007e-12
2.83272e-09
-2.80395e-09
-3.77031e-11
1.23522e-11
2.7343e-09
-2.70448e-09
-4.21728e-11
2.00407e-11
2.64844e-09
-2.61484e-09
-5.36399e-11
9.44816e-12
2.55138e-09
-2.52915e-09
-3.16731e-11
1.08094e-11
2.45562e-09
-2.42138e-09
-4.50467e-11
1.56935e-11
2.36808e-09
-2.3311e-09
-5.2671e-11
2.91908e-11
2.29605e-09
-2.25488e-09
-7.03593e-11
1.9693e-11
2.21308e-09
-2.18245e-09
-5.0321e-11
2.76152e-11
2.1311e-09
-2.08865e-09
-7.00595e-11
2.10262e-11
2.05827e-09
-2.01366e-09
-6.56379e-11
2.74124e-11
2.0004e-09
-1.94475e-09
-8.30634e-11
1.77507e-11
1.924e-09
-1.87385e-09
-6.78995e-11
2.15376e-11
1.85198e-09
-1.79218e-09
-8.13349e-11
2.75008e-11
1.78997e-09
-1.72891e-09
-8.85638e-11
3.39941e-11
1.73126e-09
-1.67212e-09
-9.31375e-11
2.51422e-11
1.66262e-09
-1.60288e-09
-8.48812e-11
2.69716e-11
1.59975e-09
-1.53074e-09
-9.59867e-11
4.13631e-11
1.55889e-09
-1.47469e-09
-1.25563e-10
2.67597e-11
1.5113e-09
-1.44265e-09
-9.54097e-11
3.0848e-11
1.43637e-09
-1.36046e-09
-1.06761e-10
2.37156e-11
1.38419e-09
-1.31174e-09
-9.61605e-11
3.58087e-12
1.27224e-09
-1.26691e-09
-8.21424e-12
4.24991e-11
1.31882e-09
-1.24595e-09
-1.15372e-10
4.14446e-11
1.26209e-09
-1.19688e-09
-1.06655e-10
3.92232e-11
1.20397e-09
-1.14546e-09
-9.77319e-11
5.01269e-11
1.16402e-09
-1.09628e-09
-1.17869e-10
5.56594e-11
1.12778e-09
-1.0636e-09
-1.19843e-10
4.73827e-11
1.08572e-09
-1.03232e-09
-1.00782e-10
3.85066e-11
1.0488e-09
-9.92252e-10
-9.50583e-11
2.90018e-11
1.01148e-09
-9.52914e-10
-8.7565e-11
3.54496e-11
9.77741e-10
-9.17033e-10
-9.6158e-11
3.83577e-11
9.48183e-10
-8.86996e-10
-9.95444e-11
3.27137e-11
8.99434e-10
-8.50247e-10
-8.19014e-11
3.80457e-11
8.6932e-10
-8.11314e-10
-9.60514e-11
4.34854e-11
8.45155e-10
-7.88817e-10
-9.98237e-11
4.16531e-11
8.1076e-10
-7.62311e-10
-9.01027e-11
3.1948e-11
7.83923e-10
-7.29498e-10
-8.63739e-11
2.41569e-11
7.56384e-10
-6.9684e-10
-8.37013e-11
2.71588e-11
7.33735e-10
-6.70373e-10
-9.0521e-11
3.16092e-11
7.18539e-10
-6.50576e-10
-9.95722e-11
4.77758e-12
6.80392e-10
-6.24314e-10
-6.08556e-11
-2.77887e-11
6.55837e-10
-5.97905e-10
-3.01438e-11
2.88859e-11
6.24263e-10
-5.89218e-10
-6.39322e-11
-1.25237e-12
6.13185e-10
-6.09386e-10
-2.54769e-12
1.7623e-11
6.16453e-10
-5.92969e-10
-4.11076e-11
1.19877e-11
5.77583e-10
-5.60515e-10
-2.90569e-11
7.16085e-12
5.69315e-10
-5.56918e-10
-1.95591e-11
-1.03176e-11
5.4541e-10
-5.5251e-10
1.74164e-11
-4.8266e-12
5.16083e-10
-5.15949e-10
4.69157e-12
-2.68632e-11
5.27411e-10
-5.53707e-10
5.31586e-11
1.45991e-11
5.08171e-10
-4.89024e-10
-3.37472e-11
-2.33153e-11
4.70684e-10
-4.92675e-10
4.53053e-11
7.57455e-12
4.71518e-10
-4.59168e-10
-1.99254e-11
-1.13453e-11
4.5965e-10
-4.69627e-10
2.13215e-11
2.29238e-13
4.3321e-10
-4.29216e-10
-4.22389e-12
3.92579e-12
4.23811e-10
-4.16578e-10
-1.11594e-11
-1.31634e-12
4.00893e-10
-3.98677e-10
-9.00346e-13
1.46861e-11
4.10321e-10
-3.9217e-10
-3.28381e-11
9.78752e-12
3.74116e-10
-3.60348e-10
-2.3556e-11
2.10256e-11
3.69218e-10
-3.43626e-10
-4.66182e-11
1.85104e-11
3.49746e-10
-3.26593e-10
-4.16644e-11
3.77954e-11
3.67628e-10
-3.24916e-10
-8.05085e-11
3.2633e-11
3.56463e-10
-3.19655e-10
-6.94416e-11
2.82014e-13
3.16597e-10
-3.13025e-10
-3.85483e-12
3.0098e-11
3.38402e-10
-3.04443e-10
-6.40581e-11
5.23518e-11
3.15731e-10
-2.57293e-10
-1.1079e-10
3.37839e-11
2.89857e-10
-2.51108e-10
-7.25329e-11
4.3727e-11
3.04731e-10
-2.5549e-10
-9.29686e-11
6.26236e-11
3.1979e-10
-2.22665e-10
-1.5975e-10
-2.29566e-11
3.10561e-10
-2.73902e-10
-1.37026e-11
-2.24933e-11
2.81172e-10
-2.46684e-10
-1.19949e-11
-3.9358e-12
2.83036e-10
-2.42194e-10
-3.69074e-11
-2.41201e-11
2.75342e-10
-2.60206e-10
8.98411e-12
-1.90079e-11
2.62191e-10
-2.37346e-10
-5.83769e-12
-1.95913e-11
2.39145e-10
-2.04934e-10
-1.46198e-11
2.81531e-12
2.45447e-10
-1.94962e-10
-5.33013e-11
-2.48445e-11
2.32464e-10
-2.09095e-10
1.47545e-12
1.52266e-12
2.337e-10
-1.85663e-10
-4.95602e-11
-1.93428e-11
2.18814e-10
-1.89052e-10
-1.04193e-11
-6.6854e-12
2.12032e-10
-1.62192e-10
-4.31553e-11
-1.56042e-11
2.061e-10
-1.70306e-10
-2.01896e-11
-2.66816e-12
2.11694e-10
-1.6643e-10
-4.25954e-11
-2.12074e-11
1.94501e-10
-1.70917e-10
-2.37664e-12
-1.63144e-11
1.79915e-10
-1.37851e-10
-2.57498e-11
-7.11213e-12
1.91588e-10
-1.52022e-10
-3.24541e-11
-1.0636e-11
1.89382e-10
-1.6374e-10
-1.50054e-11
-2.16088e-11
1.7892e-10
-1.52753e-10
-4.5578e-12
-1.24519e-11
1.69571e-10
-1.26848e-10
-3.02715e-11
-1.07345e-11
1.72989e-10
-1.2877e-10
-3.34845e-11
-8.4763e-12
1.7607e-10
-1.32036e-10
-3.55584e-11
-5.61107e-12
1.63968e-10
-1.16989e-10
-4.13686e-11
-2.0084e-12
1.50264e-10
-9.53915e-11
-5.28645e-11
-3.87326e-12
1.40528e-10
-8.05406e-11
-5.61138e-11
-6.19457e-12
1.54775e-10
-9.39732e-11
-5.46071e-11
-1.40065e-11
1.50401e-10
-1.0937e-10
-2.70239e-11
-4.36286e-11
4.30731e-11
-6.95457e-11
7.01011e-11
4.17838e-11
4.15646e-11
-1.44707e-11
-6.88779e-11
3.26009e-11
7.9168e-11
-5.09402e-11
-6.08288e-11
2.55502e-11
6.50551e-11
-4.43922e-11
-4.62132e-11
1.4638e-11
4.75002e-11
-3.80606e-11
-2.40776e-11
2.58265e-11
4.57364e-11
-2.63298e-11
-4.52333e-11
1.84832e-11
3.264e-11
-2.28711e-11
-2.82522e-11
2.83725e-11
4.34213e-11
-2.37177e-11
-4.80762e-11
1.69097e-11
2.44267e-11
-1.78326e-11
-2.35039e-11
2.82291e-11
3.05767e-11
-1.45766e-11
-4.42292e-11
2.12792e-11
2.42148e-11
-1.54807e-11
-3.00133e-11
2.62405e-11
2.88969e-11
-1.54648e-11
-3.96727e-11
1.16642e-11
1.02969e-11
-1.25738e-11
-9.38731e-12
2.80642e-11
2.05366e-11
-9.69272e-12
-3.89082e-11
1.9159e-11
2.36996e-11
-1.89161e-11
-2.39425e-11
2.02355e-11
2.15611e-11
-1.67444e-11
-2.50522e-11
9.87684e-12
5.70386e-12
-1.10149e-11
-4.56585e-12
9.66891e-12
1.81216e-13
-5.63856e-12
-4.21157e-12
1.55324e-11
6.81989e-13
-2.94254e-12
-1.32719e-11
2.04525e-11
1.57573e-11
-1.3272e-11
-2.2938e-11
8.39103e-12
5.98799e-12
-1.38849e-11
-4.94094e-13
1.60391e-11
6.83268e-12
-1.03831e-11
-1.24887e-11
-1.48942e-12
-8.79664e-12
2.99574e-13
9.98648e-12
1.64883e-11
7.93558e-12
-1.11833e-11
-1.32405e-11
-4.18097e-12
-1.58803e-11
9.52819e-12
1.0533e-11
-4.91704e-12
-9.05184e-13
-1.64364e-11
2.22586e-11
-3.01489e-12
-1.2733e-11
5.70498e-12
1.00429e-11
-9.4143e-13
-7.44702e-12
-8.00775e-12
1.63962e-11
6.18654e-12
-2.65724e-11
6.89649e-11
-4.85792e-11
5.02146e-11
8.8294e-11
-3.33639e-11
-1.05145e-10
1.48883e-10
2.28171e-10
-7.26799e-11
-3.04375e-10
8.11275e-11
1.09536e-10
-1.98493e-11
-1.70814e-10
1.01511e-10
1.15317e-10
-6.3916e-12
-2.10436e-10
8.69136e-11
8.86816e-11
5.40954e-12
-1.81005e-10
9.60076e-11
9.06782e-11
1.09275e-11
-1.97614e-10
9.53214e-11
9.36285e-11
7.15222e-12
-1.96102e-10
9.55389e-11
1.02309e-10
-1.76713e-12
-1.96081e-10
9.13818e-11
9.0191e-11
6.71198e-12
-1.88285e-10
8.72318e-11
6.9223e-11
2.42446e-11
-1.807e-10
9.61961e-11
9.02314e-11
1.13595e-11
-1.97787e-10
9.51699e-11
1.02485e-10
-1.55557e-12
-1.96099e-10
7.88392e-11
7.66635e-11
8.77197e-12
-1.64275e-10
9.03526e-11
8.08627e-11
1.50043e-11
-1.8622e-10
8.71987e-11
7.95134e-11
1.37555e-11
-1.80468e-10
9.12668e-11
9.05901e-11
5.38616e-12
-1.87243e-10
7.94519e-11
6.16938e-11
2.42884e-11
-1.65434e-10
9.72511e-11
9.60087e-11
5.69604e-12
-1.98956e-10
8.06385e-11
8.22363e-11
4.31667e-12
-1.67192e-10
8.18537e-11
7.19103e-11
1.57326e-11
-1.69497e-10
8.16156e-11
6.44453e-11
2.29572e-11
-1.69018e-10
8.2729e-11
5.3599e-11
3.46964e-11
-1.71025e-10
9.25973e-11
7.93982e-11
1.87933e-11
-1.90789e-10
8.98282e-11
8.00656e-11
1.57435e-11
-1.85638e-10
9.09527e-11
8.96828e-11
6.38371e-12
-1.8702e-10
7.71395e-11
6.92884e-11
1.42064e-11
-1.60635e-10
2.60503e-11
9.28591e-11
-1.0899e-11
-1.08011e-10
1.83817e-12
7.93587e-12
-1.86219e-11
8.84789e-12
-5.93641e-12
-2.20684e-12
-1.32943e-11
2.14375e-11
-9.07993e-12
-7.20931e-12
-7.6492e-12
2.39384e-11
-3.72391e-12
-2.01244e-11
1.1416e-11
1.24323e-11
3.91627e-13
-2.08302e-11
1.61623e-11
4.27618e-12
-2.211e-12
-1.18581e-11
4.74075e-12
9.32839e-12
-2.89423e-12
-1.59145e-11
7.49718e-12
1.13115e-11
3.76529e-12
-2.38546e-11
2.47993e-11
-4.71007e-12
-7.45294e-13
-1.97016e-11
1.73486e-11
3.09831e-12
-1.39515e-12
-1.61228e-11
1.21252e-11
5.39272e-12
-6.99662e-13
-1.95655e-11
1.46795e-11
5.58567e-12
3.9447e-12
-2.99552e-11
3.09472e-11
-4.93673e-12
1.7963e-12
-1.74501e-11
2.00698e-11
-4.41605e-12
-2.20276e-12
-2.03512e-11
1.79698e-11
4.58419e-12
6.78015e-12
-2.72406e-11
3.40369e-11
-1.35765e-11
-4.86745e-12
-2.07405e-11
2.26604e-11
2.9475e-12
3.65915e-12
-2.7666e-11
4.36511e-11
-1.96443e-11
-1.43042e-11
-1.19819e-11
6.87813e-12
1.9408e-11
1.13783e-12
-2.68059e-11
3.93944e-11
-1.37264e-11
-1.27668e-11
-1.79766e-11
9.19366e-12
2.15497e-11
1.12367e-12
-2.09917e-11
2.687e-11
-7.00195e-12
-9.43121e-12
-1.09284e-11
-3.42982e-12
2.37894e-11
-9.75792e-12
-1.52172e-11
2.8621e-12
2.2113e-11
-1.96337e-12
-2.33415e-11
1.90452e-11
6.25959e-12
-5.56082e-12
-1.4884e-11
1.34632e-11
6.9816e-12
7.83193e-13
-2.16376e-11
2.39179e-11
-3.06354e-12
-7.32981e-12
-5.83935e-12
9.97906e-12
3.19009e-12
-3.04529e-12
-2.11677e-11
1.60365e-11
8.17644e-12
1.56498e-12
-3.25867e-11
3.56986e-11
-4.67687e-12
1.20145e-12
-2.84962e-11
3.45786e-11
-7.28391e-12
6.24356e-13
-2.97543e-11
3.37187e-11
-4.58872e-12
-3.10075e-12
-5.68558e-11
5.86691e-11
1.28732e-12
1.24345e-11
-1.05414e-10
1.1901e-10
-2.60314e-11
-4.0609e-11
2.43163e-11
-7.68106e-11
9.31032e-11
6.39048e-12
1.22622e-11
-1.7435e-11
-1.21768e-12
-1.11835e-11
-9.46242e-12
-8.76423e-12
2.94101e-11
-1.19435e-11
-2.54935e-11
1.54746e-11
2.19623e-11
-7.16013e-12
-2.03847e-11
1.8056e-11
9.48878e-12
-1.49511e-11
-2.01451e-11
7.34122e-12
2.77549e-11
-9.98096e-12
-2.20199e-11
1.77463e-11
1.42546e-11
-5.37969e-12
-1.67586e-11
1.43668e-11
7.77142e-12
-1.05844e-11
-1.86648e-11
1.09481e-11
1.8301e-11
-1.83868e-11
-1.73478e-11
-1.02999e-12
3.67646e-11
-1.3721e-12
-3.76712e-11
3.7862e-11
1.18123e-12
-1.24416e-11
-2.90081e-11
2.53934e-11
1.60563e-11
2.99519e-12
-2.84383e-11
3.4667e-11
-9.22385e-12
-4.90417e-12
-1.16158e-11
2.23228e-12
1.42876e-11
-5.99666e-12
-1.40631e-11
9.55137e-12
1.05084e-11
-9.54769e-12
-1.52975e-11
8.81518e-12
1.603e-11
-4.13444e-12
-2.76506e-11
2.63612e-11
5.42386e-12
-1.07127e-11
-1.41656e-11
1.28054e-11
1.20728e-11
-1.11767e-11
-1.00446e-11
1.43778e-11
6.8435e-12
-3.36429e-12
-1.0784e-11
2.76065e-11
-1.34583e-11
-1.00008e-11
1.44387e-11
1.09599e-11
-1.53978e-11
-2.89607e-11
2.23089e-12
1.54366e-11
1.12931e-11
4.04937e-11
-1.92733e-11
6.83268e-11
-8.95473e-11
5.49734e-11
3.21298e-11
2.86855e-11
-1.15789e-10
5.57176e-11
2.32378e-11
4.04167e-11
-1.19372e-10
3.43315e-11
2.71808e-11
1.24226e-11
-7.3935e-11
2.89768e-11
1.66073e-11
1.85992e-11
-6.41834e-11
2.71136e-11
1.72614e-11
1.58422e-11
-6.02174e-11
3.88195e-11
3.30819e-11
1.2183e-11
-8.40845e-11
5.64665e-11
1.57348e-11
4.81322e-11
-1.20334e-10
2.77089e-11
1.29724e-11
2.02606e-11
-6.0942e-11
2.85427e-11
2.06518e-11
1.38441e-11
-6.30387e-11
3.0348e-11
2.60238e-11
9.8041e-12
-6.61759e-11
4.61198e-11
1.66844e-11
3.55188e-11
-9.83231e-11
2.26809e-11
8.62054e-12
1.95938e-11
-5.08952e-11
2.32669e-11
1.97505e-11
8.78107e-12
-5.17986e-11
4.1674e-11
3.75172e-11
8.95871e-12
-8.81501e-11
4.05603e-11
1.09755e-11
3.62341e-11
-8.77699e-11
2.83888e-11
2.00759e-12
3.13996e-11
-6.17961e-11
2.25724e-11
1.83152e-11
9.11478e-12
-5.00025e-11
1.14548e-11
2.18595e-11
-7.01912e-12
-2.62952e-11
2.5831e-11
2.53237e-11
5.08435e-12
-5.6239e-11
7.7498e-12
2.65818e-12
8.72741e-12
-1.91354e-11
1.09368e-11
3.90149e-11
-2.45864e-11
-2.53654e-11
-7.16744e-12
2.24631e-11
-2.69725e-11
1.16768e-11
1.34273e-11
3.02543e-11
-1.3231e-11
-3.04507e-11
3.39072e-11
9.71883e-12
2.8913e-11
-7.25391e-11
8.67379e-12
1.73909e-12
1.01258e-11
-2.05387e-11
1.58685e-11
6.11883e-11
-1.94159e-11
-5.7641e-11
-3.07631e-11
5.14565e-11
-2.71174e-11
6.4239e-12
-3.20225e-11
3.68843e-11
-2.51816e-11
2.03197e-11
-1.433e-11
3.33371e-11
-1.21474e-11
-6.85982e-12
-2.21297e-11
4.40803e-11
-2.14698e-11
-4.80784e-13
-1.98181e-11
2.90329e-11
-8.17791e-12
-1.03683e-12
-1.13355e-11
1.88093e-11
2.19141e-11
-2.9388e-11
-1.61332e-11
2.67657e-11
1.35054e-11
-2.4138e-11
-1.81983e-11
2.71296e-11
8.00716e-12
-1.69385e-11
-1.97577e-11
2.72954e-11
5.7134e-12
-1.32511e-11
-1.64597e-11
3.11236e-11
1.94187e-13
-1.48581e-11
-1.94948e-11
2.55401e-11
6.44613e-12
-1.24914e-11
-1.41769e-11
3.15697e-11
5.34896e-12
-2.27418e-11
-1.64414e-11
2.3552e-11
1.05791e-11
-1.76898e-11
-1.05039e-11
3.23239e-11
8.73983e-12
-3.05598e-11
-1.67093e-11
1.3884e-11
2.01018e-11
-1.72765e-11
-7.37154e-12
2.63779e-11
2.0213e-11
-3.92194e-11
-1.79617e-11
2.55203e-11
1.02596e-11
-1.78182e-11
-1.51855e-11
2.63496e-11
9.80342e-12
-2.09676e-11
-1.61278e-11
1.50025e-11
2.24644e-11
-2.13391e-11
-9.60697e-12
2.46321e-11
2.14873e-11
-3.65124e-11
-1.57025e-11
3.22221e-11
4.01746e-12
-2.05371e-11
-2.62032e-11
7.84203e-12
1.58762e-11
2.48496e-12
2.4546e-11
1.47176e-11
5.34233e-11
-9.26869e-11
-7.49612e-11
3.90598e-11
-4.86973e-11
8.45985e-11
-1.25252e-11
5.34783e-11
-1.01707e-11
-3.07824e-11
-2.60201e-11
4.72626e-11
-3.85457e-11
1.73032e-11
-3.01964e-11
-1.20567e-11
-6.07075e-12
4.83238e-11
-7.39786e-13
-1.18704e-11
1.74542e-11
-4.84402e-12
-2.70375e-12
-2.17994e-11
2.80047e-11
-3.50157e-12
1.67313e-12
-3.253e-11
3.85689e-11
-7.712e-12
6.041e-12
-2.11181e-11
3.55511e-11
-2.0474e-11
-1.02026e-11
-1.95495e-11
1.94866e-11
1.02656e-11
-5.57763e-13
-3.31426e-11
3.8229e-11
-4.52869e-12
4.71564e-12
-4.07355e-11
5.1975e-11
-1.59552e-11
4.38011e-12
-2.79709e-11
4.27848e-11
-1.91941e-11
-3.15397e-12
-1.62623e-11
2.01918e-11
-7.75587e-13
-1.27952e-12
-2.56111e-11
2.96033e-11
-2.71269e-12
6.46401e-12
-3.7307e-11
4.3586e-11
-1.2743e-11
5.52299e-12
-2.3768e-11
3.0103e-11
-1.18581e-11
-4.06736e-12
-1.03112e-11
5.66739e-12
8.71121e-12
-3.50742e-12
-1.99236e-11
1.95445e-11
3.88655e-12
-2.75299e-12
-2.02202e-11
2.33468e-11
-3.73638e-13
2.02427e-12
-2.66285e-11
3.28979e-11
-8.29368e-12
-3.48977e-12
-1.48857e-11
2.1638e-11
-3.26254e-12
-6.5217e-12
-2.16741e-11
2.31436e-11
5.05222e-12
-1.96367e-13
-2.53858e-11
3.16783e-11
-6.09617e-12
-6.87501e-13
-3.18783e-11
3.72822e-11
-4.71647e-12
1.47978e-12
-1.92619e-11
3.16162e-11
-1.3834e-11
-1.26607e-11
-4.85e-12
-9.41854e-13
1.84525e-11
-7.2311e-12
-1.87981e-11
2.08551e-11
5.17413e-12
-7.81597e-13
-2.40256e-11
2.76406e-11
-2.83346e-12
-4.39695e-13
-1.72284e-11
2.1136e-11
-3.4679e-12
-5.87392e-12
-1.2329e-11
1.25535e-11
5.64942e-12
-5.14552e-12
-1.25315e-11
1.4164e-11
3.51307e-12
-7.81368e-12
-1.73574e-11
2.12534e-11
3.9177e-12
6.70061e-12
1.8254e-11
-1.1288e-11
-1.36666e-11
3.3223e-11
2.59773e-11
8.76521e-12
-6.79655e-11
2.38728e-11
1.78532e-11
7.66724e-12
-4.93933e-11
2.90025e-11
1.95551e-11
1.08038e-11
-5.93615e-11
2.29707e-11
2.03933e-11
3.79712e-12
-4.71611e-11
2.18282e-11
1.83999e-11
4.44151e-12
-4.46696e-11
2.07182e-11
2.24495e-11
-5.16293e-13
-4.26514e-11
1.4934e-11
1.29009e-11
3.02968e-12
-3.08646e-11
1.62734e-11
9.13904e-12
7.94305e-12
-3.33555e-11
1.55071e-11
1.14763e-11
4.82593e-12
-3.18093e-11
1.48453e-11
1.20825e-11
3.42189e-12
-3.03497e-11
1.10652e-11
9.44619e-12
2.30847e-12
-2.28199e-11
1.0778e-11
6.86943e-12
4.42763e-12
-2.20751e-11
9.56927e-12
7.34597e-12
2.71649e-12
-1.96317e-11
8.60242e-12
6.48343e-12
2.51172e-12
-1.75976e-11
8.1672e-12
8.01895e-12
5.44236e-13
-1.67304e-11
5.07191e-12
3.79732e-12
1.66556e-12
-1.05348e-11
6.02079e-12
3.15569e-12
3.12977e-12
-1.23063e-11
5.15464e-12
3.69327e-12
1.67901e-12
-1.05269e-11
3.80829e-12
1.99352e-12
2.06282e-12
-7.86463e-12
3.64888e-12
1.90487e-12
1.89425e-12
-7.448e-12
2.95791e-12
1.61331e-12
1.48497e-12
-6.05619e-12
2.43156e-12
1.19982e-12
1.34569e-12
-4.97705e-12
2.05619e-12
1.01325e-12
1.12539e-12
-4.19484e-12
1.41619e-12
2.74464e-13
1.24309e-12
-2.93373e-12
1.28605e-12
8.30731e-14
1.25321e-12
-2.62233e-12
2.10451e-13
-4.40182e-14
9.68189e-13
-1.13464e-12
-3.62418e-13
-4.70672e-13
6.77833e-13
1.55244e-13
-3.20829e-13
-9.81961e-13
1.15671e-12
1.46088e-13
-2.3091e-13
-6.17958e-13
8.05885e-13
4.29815e-14
-1.2982e-13
-6.47255e-13
8.09665e-13
-3.25848e-14
-2.05093e-13
-7.1842e-13
7.33929e-13
1.89593e-13
-6.96566e-14
-8.04672e-13
9.18719e-13
-4.43982e-14
-9.0031e-14
-6.60654e-13
7.19242e-13
3.14235e-14
-3.66349e-14
-6.01458e-13
6.58243e-13
-2.01557e-14
-4.70281e-14
-6.09117e-13
6.23554e-13
3.26039e-14
-1.05612e-14
-6.13739e-13
6.46632e-13
-2.23287e-14
-1.96365e-14
-5.78397e-13
5.9478e-13
3.25963e-15
-6.51418e-15
-5.43078e-13
5.61502e-13
-1.19208e-14
-3.58247e-15
-5.13236e-13
5.25834e-13
-9.00606e-15
-2.90284e-15
-4.8915e-13
4.9721e-13
-5.14729e-15
1.9758e-15
-4.66144e-13
4.76166e-13
-1.20097e-14
2.20441e-17
-4.37231e-13
4.43368e-13
-6.16002e-15
1.75059e-15
-4.13993e-13
4.1976e-13
-7.50625e-15
1.8949e-15
-3.9231e-13
3.96892e-13
-6.48408e-15
2.74793e-15
-3.72703e-13
3.77561e-13
-7.60091e-15
2.63906e-15
-3.51491e-13
3.55938e-13
-7.07031e-15
2.79266e-15
-3.31831e-13
3.35947e-13
-6.90928e-15
2.57782e-15
-3.14321e-13
3.1792e-13
-6.16596e-15
3.13725e-15
-2.96977e-13
3.01059e-13
-7.23622e-15
2.75041e-15
-2.79931e-13
2.83542e-13
-6.35098e-15
2.8822e-15
-2.643e-13
2.67924e-13
-6.50946e-15
2.69183e-15
-2.49246e-13
2.52579e-13
-6.00761e-15
2.44462e-15
-2.35469e-13
2.38559e-13
-5.53287e-15
2.38694e-15
-2.22003e-13
2.25097e-13
-5.48142e-15
1.98015e-15
-2.09329e-13
2.12158e-13
-4.82066e-15
1.8118e-15
-1.99077e-13
2.01638e-13
-4.38219e-15
2.81333e-15
-1.85215e-13
1.88634e-13
-6.22259e-15
2.07486e-15
-1.73601e-13
1.76283e-13
-4.7421e-15
1.96342e-15
-1.63458e-13
1.65944e-13
-4.4435e-15
1.91355e-15
-1.54036e-13
1.56355e-13
-4.23123e-15
1.85484e-15
-1.45111e-13
1.47334e-13
-4.07002e-15
1.78725e-15
-1.36619e-13
1.38756e-13
-3.92745e-15
1.69883e-15
-1.28517e-13
1.30563e-13
-3.76319e-15
1.61766e-15
-1.2086e-13
1.22802e-13
-3.55244e-15
1.52059e-15
-1.13706e-13
1.15522e-13
-3.34323e-15
1.47193e-15
-1.06822e-13
1.08597e-13
-3.25522e-15
1.33683e-15
-1.00233e-13
1.0192e-13
-3.01684e-15
1.25438e-15
-9.40787e-14
9.56524e-14
-2.84e-15
1.24296e-15
-8.82437e-14
8.97624e-14
-2.75676e-15
1.14227e-15
-8.28377e-14
8.42229e-14
-2.52339e-15
1.08331e-15
-7.76588e-14
7.90285e-14
-2.45348e-15
1.02748e-15
-7.26068e-14
7.3944e-14
-2.35481e-15
9.29597e-16
-6.79718e-14
6.91658e-14
-2.11761e-15
9.1779e-16
-6.36194e-14
6.47629e-14
-2.04531e-15
8.62404e-16
-5.9464e-14
6.05578e-14
-1.94116e-15
8.32853e-16
-5.55486e-14
5.65672e-14
-1.85079e-15
7.97087e-16
-5.18695e-14
5.28561e-14
-1.78878e-15
7.46038e-16
-4.84706e-14
4.93688e-14
-1.63091e-15
7.59087e-16
-4.52706e-14
4.60971e-14
-1.57395e-15
6.85244e-16
-4.21958e-14
4.30309e-14
-1.52878e-15
6.0609e-16
-3.9267e-14
4.00432e-14
-1.37504e-15
4.59514e-16
-3.65468e-14
3.72448e-14
-1.1615e-15
5.0653e-16
-3.38463e-14
3.45087e-14
-1.16165e-15
3.95391e-16
-3.14552e-14
3.21322e-14
-1.09122e-15
3.82878e-16
-2.91487e-14
2.9776e-14
-1.01989e-15
3.62408e-16
-2.70007e-14
2.75995e-14
-9.66267e-16
3.17834e-16
-2.4969e-14
2.55466e-14
-8.86824e-16
2.83571e-16
-2.3039e-14
2.35796e-14
-8.39295e-16
2.79249e-16
-2.11974e-14
2.17119e-14
-7.83386e-16
2.45264e-16
-1.94694e-14
1.99609e-14
-7.28082e-16
2.23975e-16
-1.78207e-14
1.82903e-14
-6.77947e-16
2.30888e-16
-1.63085e-14
1.67383e-14
-6.53505e-16
2.15622e-16
-1.49305e-14
1.53193e-14
-6.1934e-16
1.811e-16
-1.35953e-14
1.39719e-14
-5.54259e-16
1.71338e-16
-1.2294e-14
1.2665e-14
-5.43878e-16
1.59e-16
-1.10997e-14
1.1436e-14
-4.89107e-16
1.48522e-16