/*--------------------------------*- C++ -*----------------------------------*\
| =========                 |                                                 |
| \\      /  F ield         | OpenFOAM: The Open Source CFD Toolbox           |
|  \\    /   O peration     | Version:  v1706                                 |
|   \\  /    A nd           | Web:      www.OpenFOAM.com                      |
|    \\/     M anipulation  |                                                 |
\*---------------------------------------------------------------------------*/
FoamFile
{
    version     2.0;
    format      ascii;
    class       surfaceScalarField;
    location    "0.5";
    object      phi;
}
// * * * * * * * * * * * * * * * * * * * * * * * * * * * * * * * * * * * * * //

dimensions      [0 3 -1 0 0 0 0];
oriented        oriented;


internalField   nonuniform List<scalar> 
284639
(
1.4823e-07
1.26021e-10
-1.48169e-07
-1.86395e-10
2.81713e-10
-1.47243e-07
1.47319e-07
-3.57995e-10
4.51328e-10
-1.45767e-07
1.45995e-07
-6.78814e-10
6.44192e-10
-1.43432e-07
1.4387e-07
-1.082e-09
8.12644e-10
-1.40339e-07
1.40947e-07
-1.42069e-09
1.02172e-09
-1.36766e-07
1.37568e-07
-1.82337e-09
1.26474e-09
-1.32105e-07
1.33184e-07
-2.343e-09
1.51969e-09
-1.26416e-07
1.27747e-07
-2.85059e-09
1.74472e-09
-1.19544e-07
1.21222e-07
-3.4232e-09
1.98278e-09
-1.11486e-07
1.13475e-07
-3.97105e-09
2.24276e-09
-1.02177e-07
1.04536e-07
-4.60181e-09
2.50946e-09
-9.16352e-08
9.43412e-08
-5.21554e-09
2.74201e-09
-7.98253e-08
8.28649e-08
-5.78164e-09
2.94521e-09
-6.66467e-08
7.00617e-08
-6.36025e-09
3.12882e-09
-5.22195e-08
5.5956e-08
-6.86526e-09
3.32721e-09
-3.67161e-08
4.06587e-08
-7.26983e-09
3.5081e-09
-2.08799e-08
2.48444e-08
-7.47259e-09
3.73137e-09
-4.39307e-09
8.63102e-09
-7.96933e-09
3.99412e-09
1.32069e-08
-8.71447e-09
-8.48655e-09
4.13383e-09
3.15418e-08
-2.68421e-08
-8.83352e-09
4.29924e-09
5.03662e-08
-4.55324e-08
-9.13299e-09
4.41103e-09
6.96453e-08
-6.4666e-08
-9.3903e-09
4.40077e-09
8.90329e-08
-8.40551e-08
-9.3786e-09
4.33113e-09
1.08406e-07
-1.03481e-07
-9.25567e-09
4.25142e-09
1.27495e-07
-1.22584e-07
-9.16279e-09
4.2182e-09
1.46108e-07
-1.41376e-07
-8.95028e-09
4.03286e-09
1.6397e-07
-1.59498e-07
-8.50515e-09
3.82537e-09
1.80862e-07
-1.76712e-07
-7.97479e-09
3.54404e-09
1.96482e-07
-1.92556e-07
-7.47012e-09
3.17153e-09
2.10764e-07
-2.07242e-07
-6.69358e-09
2.74874e-09
2.23462e-07
-2.20367e-07
-5.84431e-09
2.2977e-09
2.34396e-07
-2.31785e-07
-4.90917e-09
1.80084e-09
2.43304e-07
-2.41246e-07
-3.85895e-09
1.31096e-09
2.50046e-07
-2.48532e-07
-2.82507e-09
7.58462e-10
2.54643e-07
-2.53705e-07
-1.69688e-09
1.36994e-10
2.56827e-07
-2.56502e-07
-4.61829e-10
-4.57227e-10
2.56591e-07
-2.5682e-07
6.85805e-10
-1.03778e-09
2.53952e-07
-2.54793e-07
1.87894e-09
-1.64376e-09
2.48805e-07
-2.50261e-07
3.10018e-09
-2.25193e-09
2.41265e-07
-2.43328e-07
4.31485e-09
-2.89971e-09
2.31349e-07
-2.34019e-07
5.57001e-09
-3.47707e-09
2.19235e-07
-2.22474e-07
6.71563e-09
-4.10285e-09
2.04955e-07
-2.08766e-07
7.91391e-09
-4.74642e-09
1.8865e-07
-1.9304e-07
9.13633e-09
-5.27616e-09
1.70534e-07
-1.75395e-07
1.01375e-08
-5.70876e-09
1.508e-07
-1.56094e-07
1.10029e-08
-6.05133e-09
1.29675e-07
-1.3529e-07
1.16664e-08
-6.22163e-09
1.07428e-07
-1.13257e-07
1.20505e-08
-6.32407e-09
8.43717e-08
-9.03437e-08
1.2296e-08
-6.40929e-09
6.05585e-08
-6.65803e-08
1.24311e-08
-6.57532e-09
3.65419e-08
-4.27201e-08
1.27535e-08
-6.5796e-09
1.2422e-08
-1.86393e-08
1.2797e-08
-6.44018e-09
-1.18063e-08
5.71069e-09
1.25358e-08
-6.1588e-09
-3.55527e-08
2.97241e-08
1.19874e-08
-5.86698e-09
-5.84227e-08
5.28868e-08
1.14028e-08
-5.5475e-09
-8.01561e-08
7.49448e-08
1.07589e-08
-5.22622e-09
-1.00633e-07
9.57149e-08
1.01441e-08
-4.77772e-09
-1.19587e-07
1.15103e-07
9.26093e-09
-4.36503e-09
-1.36877e-07
1.32793e-07
8.44934e-09
-3.84634e-09
-1.52267e-07
1.48711e-07
7.40173e-09
-3.3981e-09
-1.65766e-07
1.62638e-07
6.52643e-09
-2.8653e-09
-1.77164e-07
1.74578e-07
5.45191e-09
-2.34448e-09
-1.86423e-07
1.8437e-07
4.3975e-09
-1.86825e-09
-1.93571e-07
1.92015e-07
3.42407e-09
-1.27617e-09
-1.98319e-07
1.9738e-07
2.21496e-09
-7.18475e-10
-2.00788e-07
2.00406e-07
1.10029e-09
-1.43014e-10
-2.01024e-07
2.0121e-07
-4.31054e-11
2.36176e-10
-1.99509e-07
2.0003e-07
-7.57429e-10
7.19697e-10
-1.9622e-07
1.97221e-07
-1.72029e-09
1.10786e-09
-1.91371e-07
1.92725e-07
-2.46263e-09
1.42458e-09
-1.85261e-07
1.86894e-07
-3.05849e-09
1.78218e-09
-1.77907e-07
1.79861e-07
-3.73637e-09
2.02617e-09
-1.69384e-07
1.71565e-07
-4.20702e-09
2.22701e-09
-1.60159e-07
1.62544e-07
-4.6121e-09
2.37822e-09
-1.50215e-07
1.52729e-07
-4.89227e-09
2.4512e-09
-1.39608e-07
1.42176e-07
-5.01887e-09
2.43038e-09
-1.28893e-07
1.31448e-07
-4.98632e-09
2.35439e-09
-1.18304e-07
1.20814e-07
-4.86402e-09
2.39414e-09
-1.08054e-07
1.10602e-07
-4.94166e-09
2.49716e-09
-9.73508e-08
1.0004e-07
-5.18647e-09
2.06954e-09
-8.74612e-08
8.97456e-08
-4.35394e-09
2.73138e-09
-7.71857e-08
7.99574e-08
-5.50302e-09
3.56266e-09
-6.87962e-08
7.1567e-08
-6.33344e-09
3.57192e-09
-6.02884e-08
6.3048e-08
-6.33154e-09
3.43885e-09
-5.20986e-08
5.4771e-08
-6.11128e-09
3.37417e-09
-4.46985e-08
4.72272e-08
-5.9028e-09
3.33967e-09
-3.79823e-08
4.03188e-08
-5.67616e-09
2.02126e-09
-3.22814e-08
3.38794e-08
-3.61928e-09
1.21123e-09
-2.61227e-08
2.81746e-08
-3.26317e-09
1.16306e-09
-2.13396e-08
2.33048e-08
-3.12827e-09
9.40863e-10
-1.73497e-08
1.90678e-08
-2.65903e-09
4.07643e-10
-1.32313e-08
1.50424e-08
-2.21867e-09
8.1521e-10
-1.07855e-08
1.22463e-08
-2.27596e-09
3.00712e-10
-7.69319e-09
9.04576e-09
-1.65329e-09
7.82368e-10
-5.71205e-09
6.7461e-09
-1.81642e-09
1.52327e-09
-3.89903e-09
5.16037e-09
-2.78462e-09
-3.49288e-10
-1.03772e-09
1.93672e-09
-5.49711e-10
-3.06129e-10
7.89376e-10
3.71476e-10
-8.54723e-10
5.37192e-10
1.71458e-09
-7.19739e-10
-1.53204e-09
1.50544e-09
1.55265e-09
-5.47965e-10
-2.51012e-09
-2.16378e-10
3.21837e-09
-2.4475e-09
-5.5449e-10
-5.87279e-10
4.9346e-09
-4.04313e-09
-3.04186e-10
-5.81614e-10
5.67704e-09
-4.7195e-09
-3.75927e-10
-4.87803e-10
6.30073e-09
-5.32422e-09
-4.88708e-10
-7.37045e-11
6.56384e-09
-5.56982e-09
-9.20311e-10
-3.38396e-10
7.20082e-09
-6.44317e-09
-4.19251e-10
6.05397e-10
8.14528e-09
-7.425e-09
-1.32568e-09
-4.23782e-10
7.74737e-09
-8.0159e-09
6.92311e-10
-6.05097e-11
8.55863e-09
-8.5718e-09
7.36781e-11
-7.7842e-10
8.92993e-09
-9.58494e-09
1.43343e-09
2.56003e-10
9.63042e-09
-9.41903e-09
-4.67398e-10
-2.14148e-10
1.02353e-08
-1.03429e-08
3.21702e-10
-5.71916e-11
1.07005e-08
-1.06743e-08
3.10135e-11
-5.97315e-10
1.09711e-08
-1.14427e-08
1.06885e-09
1.52047e-10
1.17175e-08
-1.15704e-08
-2.99122e-10
-4.67501e-10
1.17534e-08
-1.20958e-08
8.09876e-10
2.05542e-10
1.24375e-08
-1.22742e-08
-3.68856e-10
-4.01954e-10
1.2507e-08
-1.27981e-08
6.93037e-10
2.60334e-10
1.32071e-08
-1.3045e-08
-4.2245e-10
-3.28702e-11
1.39592e-08
-1.39297e-08
3.42272e-12
-1.55754e-10
1.40187e-08
-1.40955e-08
2.32545e-10
-3.09778e-11
1.40685e-08
-1.40325e-08
-5.06026e-12
4.15306e-11
1.43655e-08
-1.43041e-08
-1.02932e-10
1.09936e-10
1.42898e-08
-1.4122e-08
-2.77766e-10
4.20648e-10
1.49127e-08
-1.45445e-08
-7.88793e-10
2.29595e-10
1.51653e-08
-1.48756e-08
-5.19344e-10
-1.4777e-10
1.51916e-08
-1.52506e-08
2.06769e-10
6.3364e-10
1.55705e-08
-1.50194e-08
-1.18474e-09
3.10128e-10
1.58918e-08
-1.55114e-08
-6.90503e-10
4.29415e-10
1.5975e-08
-1.54923e-08
-9.12177e-10
-1.12357e-10
1.59966e-08
-1.60109e-08
1.26582e-10
4.59642e-10
1.62163e-08
-1.57976e-08
-8.78332e-10
4.69423e-10
1.62743e-08
-1.57632e-08
-9.80522e-10
-2.07493e-10
1.62356e-08
-1.64593e-08
4.31285e-10
3.4659e-10
1.67093e-08
-1.63732e-08
-6.82661e-10
3.32119e-10
1.66106e-08
-1.62683e-08
-6.74405e-10
1.98244e-10
1.69465e-08
-1.67495e-08
-3.95285e-10
4.612e-10
1.67921e-08
-1.63764e-08
-8.76912e-10
1.83134e-10
1.71643e-08
-1.70157e-08
-3.31798e-10
2.25518e-10
1.69536e-08
-1.67679e-08
-4.11193e-10
1.54531e-10
1.64011e-08
-1.626e-08
-2.9569e-10
2.46643e-10
1.64125e-08
-1.61909e-08
-4.68221e-10
1.93005e-10
1.63123e-08
-1.6119e-08
-3.86241e-10
1.21937e-10
1.64755e-08
-1.63678e-08
-2.29661e-10
7.19928e-11
1.61387e-08
-1.6082e-08
-1.28698e-10
1.68668e-10
1.57223e-08
-1.55485e-08
-3.42423e-10
9.65293e-11
1.58017e-08
-1.57005e-08
-1.97743e-10
4.60047e-11
1.55097e-08
-1.54616e-08
-9.41015e-11
6.31953e-11
1.50388e-08
-1.49698e-08
-1.32179e-10
5.34867e-11
1.48179e-08
-1.47465e-08
-1.24905e-10
3.01441e-11
1.45851e-08
-1.45375e-08
-7.77892e-11
1.3644e-11
1.42541e-08
-1.42199e-08
-4.77996e-11
8.12855e-11
1.41313e-08
-1.40342e-08
-1.7841e-10
2.59209e-11
1.3908e-08
-1.3866e-08
-6.79499e-11
1.01584e-12
1.35684e-08
-1.35515e-08
-1.79852e-11
-4.29653e-11
1.31029e-08
-1.31256e-08
6.56637e-11
7.2228e-11
1.27154e-08
-1.26246e-08
-1.63045e-10
1.84877e-11
1.25446e-08
-1.24966e-08
-6.64706e-11
-6.15503e-12
1.2198e-08
-1.21793e-08
-1.25652e-11
2.96281e-11
1.18e-08
-1.1748e-08
-8.16773e-11
3.41749e-12
1.15367e-08
-1.15021e-08
-3.80548e-11
1.50522e-11
1.11987e-08
-1.11502e-08
-6.35612e-11
1.27294e-10
1.09658e-08
-1.08286e-08
-2.64483e-10
8.04871e-11
1.06569e-08
-1.05456e-08
-1.91824e-10
9.87602e-11
1.03289e-08
-1.02002e-08
-2.27519e-10
1.20658e-10
1.00204e-08
-9.86963e-09
-2.71451e-10
7.6596e-11
9.74145e-09
-9.63847e-09
-1.79582e-10
8.27215e-11
9.38164e-09
-9.27083e-09
-1.9353e-10
1.57375e-10
9.19459e-09
-9.00682e-09
-3.45145e-10
1.08098e-10
8.94482e-09
-8.80866e-09
-2.44254e-10
8.8013e-11
8.63391e-09
-8.52006e-09
-2.01864e-10
5.85402e-11
8.31108e-09
-8.22872e-09
-1.40904e-10
1.12784e-10
8.07116e-09
-7.93296e-09
-2.50986e-10
6.43468e-11
7.86425e-09
-7.7701e-09
-1.58489e-10
5.86014e-11
7.54436e-09
-7.46426e-09
-1.387e-10
1.01187e-10
7.33713e-09
-7.21369e-09
-2.24629e-10
8.28719e-11
7.12245e-09
-7.01774e-09
-1.87582e-10
7.92027e-11
6.87418e-09
-6.77293e-09
-1.80445e-10
8.6046e-11
6.65276e-09
-6.54531e-09
-1.93496e-10
7.6221e-11
6.4528e-09
-6.35543e-09
-1.73592e-10
6.7996e-11
6.2185e-09
-6.12966e-09
-1.56834e-10
7.03647e-11
6.00154e-09
-5.9109e-09
-1.61004e-10
6.57645e-11
5.80635e-09
-5.72108e-09
-1.51036e-10
6.02576e-11
5.61109e-09
-5.53221e-09
-1.39145e-10
6.07245e-11
5.41274e-09
-5.3334e-09
-1.40064e-10
6.04059e-11
5.23789e-09
-5.15948e-09
-1.38819e-10
5.48032e-11
5.05766e-09
-4.98427e-09
-1.28191e-10
8.14331e-11
4.91304e-09
-4.81408e-09
-1.80388e-10
3.516e-11
4.76649e-09
-4.69008e-09
-1.11572e-10
2.35276e-11
4.52337e-09
-4.49204e-09
-5.48584e-11
2.04936e-11
4.3679e-09
-4.33552e-09
-5.28718e-11
1.20439e-11
4.24678e-09
-4.19842e-09
-6.04121e-11
6.64388e-12
4.08234e-09
-4.06727e-09
-2.1718e-11
1.25328e-11
3.93001e-09
-3.90866e-09
-3.38741e-11
1.19733e-11
3.79335e-09
-3.76754e-09
-3.77859e-11
1.33801e-11
3.67593e-09
-3.64504e-09
-4.42758e-11
5.77768e-12
3.54458e-09
-3.52828e-09
-2.2082e-11
4.86928e-12
3.41443e-09
-3.39539e-09
-2.39146e-11
2.36949e-12
3.28831e-09
-3.26805e-09
-2.26356e-11
6.91604e-12
3.177e-09
-3.14744e-09
-3.64743e-11
1.13984e-11
3.07713e-09
-3.04569e-09
-4.2842e-11
4.63666e-12
2.96192e-09
-2.94232e-09
-2.42403e-11
8.72261e-12
2.85351e-09
-2.82527e-09
-3.69613e-11
1.20836e-11
2.75465e-09
-2.7252e-09
-4.15299e-11
1.97779e-11
2.66884e-09
-2.6354e-09
-5.32193e-11
9.01013e-12
2.57185e-09
-2.54996e-09
-3.09029e-11
1.06157e-11
2.47517e-09
-2.44132e-09
-4.44664e-11
1.55756e-11
2.38655e-09
-2.34987e-09
-5.22481e-11
2.90535e-11
2.31461e-09
-2.27342e-09
-7.02425e-11
1.92879e-11
2.23186e-09
-2.20141e-09
-4.97344e-11
2.74357e-11
2.14935e-09
-2.107e-09
-6.97786e-11
2.08656e-11
2.07593e-09
-2.03151e-09
-6.5284e-11
2.75378e-11
2.0176e-09
-1.96192e-09
-8.32172e-11
1.77452e-11
1.94112e-09
-1.89101e-09
-6.78567e-11
2.15e-11
1.86839e-09
-1.80833e-09
-8.15659e-11
2.77719e-11
1.80597e-09
-1.7446e-09
-8.91383e-11
3.4275e-11
1.74739e-09
-1.68806e-09
-9.36122e-11
2.51493e-11
1.67891e-09
-1.61862e-09
-8.54373e-11
2.71893e-11
1.61518e-09
-1.54557e-09
-9.67973e-11
4.16886e-11
1.57358e-09
-1.48872e-09
-1.26542e-10
2.71017e-11
1.52609e-09
-1.45661e-09
-9.65792e-11
3.12712e-11
1.45042e-09
-1.37372e-09
-1.07971e-10
2.41872e-11
1.39809e-09
-1.32465e-09
-9.76278e-11
4.16158e-12
1.28531e-09
-1.27891e-09
-9.87679e-12
4.28472e-11
1.33227e-09
-1.25862e-09
-1.16491e-10
4.20335e-11
1.27493e-09
-1.20877e-09
-1.08188e-10
3.99346e-11
1.21667e-09
-1.15717e-09
-9.9434e-11
5.08569e-11
1.17594e-09
-1.1072e-09
-1.19592e-10
5.64628e-11
1.13964e-09
-1.0743e-09
-1.21806e-10
4.80499e-11
1.09764e-09
-1.04324e-09
-1.02448e-10
3.91939e-11
1.06036e-09
-1.0029e-09
-9.66556e-11
2.96696e-11
1.02261e-09
-9.63186e-10
-8.9096e-11
3.62174e-11
9.88441e-10
-9.2673e-10
-9.79287e-11
3.90805e-11
9.58802e-10
-8.96628e-10
-1.01254e-10
3.32762e-11
9.09878e-10
-8.59887e-10
-8.32676e-11
3.87108e-11
8.79323e-10
-8.20407e-10
-9.76273e-11
4.41896e-11
8.55058e-10
-7.97763e-10
-1.01485e-10
4.22661e-11
8.20625e-10
-7.71318e-10
-9.15726e-11
3.25798e-11
7.93549e-10
-7.38283e-10
-8.78457e-11
2.47532e-11
7.65706e-10
-7.05284e-10
-8.51754e-11
2.78372e-11
7.42787e-10
-6.78415e-10
-9.22088e-11
3.23347e-11
7.27617e-10
-6.58526e-10
-1.01425e-10
5.28759e-12
6.8935e-10
-6.32262e-10
-6.23761e-11
-2.78946e-11
6.64335e-10
-6.05652e-10
-3.07886e-11
2.8926e-11
6.32262e-10
-5.97144e-10
-6.40447e-11
-1.5334e-12
6.21126e-10
-6.17525e-10
-2.0673e-12
1.73324e-11
6.24441e-10
-6.01186e-10
-4.05872e-11
1.17482e-11
5.85168e-10
-5.68266e-10
-2.86503e-11
6.99523e-12
5.76896e-10
-5.6458e-10
-1.93105e-11
-1.06544e-11
5.52752e-10
-5.60143e-10
1.80453e-11
-5.10001e-12
5.23284e-10
-5.23372e-10
5.18831e-12
-2.75353e-11
5.34416e-10
-5.61366e-10
5.44855e-11
1.4468e-11
5.15186e-10
-4.96137e-10
-3.35167e-11
-2.37064e-11
4.77276e-10
-4.99626e-10
4.60569e-11
7.42867e-12
4.78191e-10
-4.65951e-10
-1.96683e-11
-1.17899e-11
4.66026e-10
-4.76457e-10
2.22214e-11
2.26542e-14
4.3941e-10
-4.35575e-10
-3.85741e-12
3.7277e-12
4.29871e-10
-4.22808e-10
-1.0791e-11
-1.5033e-12
4.06755e-10
-4.04693e-10
-5.58416e-13
1.45725e-11
4.16196e-10
-3.98148e-10
-3.26199e-11
9.72316e-12
3.7965e-10
-3.65921e-10
-2.34523e-11
2.1113e-11
3.74697e-10
-3.48986e-10
-4.68232e-11
1.86067e-11
3.54998e-10
-3.31709e-10
-4.18965e-11
3.81208e-11
3.73012e-10
-3.29933e-10
-8.11997e-11
3.2874e-11
3.61717e-10
-3.24642e-10
-6.99497e-11
1.73065e-13
3.21435e-10
-3.17938e-10
-3.66989e-12
3.02896e-11
3.43428e-10
-3.09264e-10
-6.44544e-11
5.29111e-11
3.20598e-10
-2.61557e-10
-1.11952e-10
3.41123e-11
2.94356e-10
-2.5523e-10
-7.32382e-11
4.42037e-11
3.09406e-10
-2.59644e-10
-9.3966e-11
6.33926e-11
3.24571e-10
-2.26376e-10
-1.61588e-10
-2.32066e-11
3.15277e-10
-2.78138e-10
-1.39323e-11
-2.27716e-11
2.85514e-10
-2.50575e-10
-1.21681e-11
-4.05782e-12
2.87382e-10
-2.45998e-10
-3.73261e-11
-2.44337e-11
2.79524e-10
-2.64132e-10
9.04121e-12
-1.92039e-11
2.66267e-10
-2.41048e-10
-6.01556e-12
-1.97611e-11
2.42965e-10
-2.08289e-10
-1.49148e-11
2.79861e-12
2.49286e-10
-1.98185e-10
-5.38996e-11
-2.50843e-11
2.36144e-10
-2.12439e-10
1.37978e-12
1.49744e-12
2.37366e-10
-1.88746e-10
-5.01176e-11
-1.95167e-11
2.22322e-10
-1.9217e-10
-1.06356e-11
-6.76617e-12
2.15419e-10
-1.64978e-10
-4.36749e-11
-1.57937e-11
2.09401e-10
-1.73163e-10
-2.04443e-11
-2.76434e-12
2.15018e-10
-1.69219e-10
-4.30347e-11
-2.13976e-11
1.97677e-10
-1.7376e-10
-2.51967e-12
-1.64904e-11
1.82854e-10
-1.40286e-10
-2.60775e-11
-7.19881e-12
1.94625e-10
-1.54583e-10
-3.28433e-11
-1.07413e-11
1.92379e-10
-1.66419e-10
-1.52184e-11
-2.17831e-11
1.81809e-10
-1.55299e-10
-4.72755e-12
-1.25625e-11
1.72306e-10
-1.29095e-10
-3.06491e-11
-1.08222e-11
1.7574e-10
-1.31032e-10
-3.38859e-11
-8.55022e-12
1.78841e-10
-1.34328e-10
-3.59631e-11
-5.59847e-12
1.66638e-10
-1.19148e-10
-4.18919e-11
-1.95759e-12
1.52772e-10
-9.73134e-11
-5.35012e-11
-3.84318e-12
1.42894e-10
-8.2269e-11
-5.67816e-11
-6.22989e-12
1.57201e-10
-9.57599e-11
-5.52115e-11
-1.40647e-11
1.52785e-10
-1.11305e-10
-2.74153e-11
-4.39106e-11
4.439e-11
-7.10213e-11
7.05419e-11
4.23419e-11
4.2919e-11
-1.52666e-11
-6.99943e-11
3.3014e-11
8.08211e-11
-5.21815e-11
-6.16536e-11
2.59335e-11
6.65864e-11
-4.55414e-11
-4.69785e-11
1.49278e-11
4.88357e-11
-3.9096e-11
-2.46675e-11
2.61916e-11
4.69892e-11
-2.72012e-11
-4.59796e-11
1.88145e-11
3.38048e-11
-2.36736e-11
-2.89457e-11
2.87758e-11
4.46257e-11
-2.45237e-11
-4.88778e-11
1.72279e-11
2.55035e-11
-1.85527e-11
-2.41788e-11
2.86622e-11
3.16423e-11
-1.52176e-11
-4.50868e-11
2.16373e-11
2.52232e-11
-1.61247e-11
-3.07357e-11
2.66201e-11
2.98871e-11
-1.60937e-11
-4.04136e-11
1.19065e-11
1.12482e-11
-1.31371e-11
-1.00176e-11
2.84337e-11
2.14747e-11
-1.01655e-11
-3.97429e-11
1.94686e-11
2.46335e-11
-1.95803e-11
-2.45218e-11
2.05302e-11
2.24376e-11
-1.73752e-11
-2.55926e-11
1.00617e-11
6.6831e-12
-1.15597e-11
-5.18509e-12
1.00057e-11
7.01069e-13
-6.27124e-12
-4.43554e-12
1.5897e-11
1.18973e-12
-3.49971e-12
-1.3587e-11
2.07506e-11
1.65699e-11
-1.37992e-11
-2.35212e-11
8.53559e-12
6.86117e-12
-1.44002e-11
-9.96605e-13
1.62641e-11
7.63982e-12
-1.0869e-11
-1.30349e-11
-1.48777e-12
-8.12346e-12
-2.04453e-13
9.81569e-12
1.6645e-11
8.62696e-12
-1.16165e-11
-1.36554e-11
-4.3288e-12
-1.56487e-11
9.0142e-12
1.09633e-11
-4.83981e-12
-4.92971e-13
-1.69573e-11
2.22901e-11
-3.05993e-12
-1.24846e-11
5.15572e-12
1.03888e-11
-1.07348e-12
-6.64937e-12
-8.42141e-12
1.61443e-11
6.27389e-12
-2.65597e-11
6.93011e-11
-4.90154e-11
5.0696e-11
8.94618e-11
-3.40601e-11
-1.06098e-10
1.50466e-10
2.30854e-10
-7.38169e-11
-3.07505e-10
8.20597e-11
1.10954e-10
-2.03132e-11
-1.727e-10
1.02718e-10
1.16762e-10
-6.70049e-12
-2.12779e-10
8.77857e-11
8.98093e-11
5.16979e-12
-1.82765e-10
9.7013e-11
9.18746e-11
1.07293e-11
-1.99617e-10
9.62882e-11
9.48477e-11
6.89057e-12
-1.98026e-10
9.64698e-11
1.03614e-10
-2.06426e-12
-1.98019e-10
9.22954e-11
9.13797e-11
6.43942e-12
-1.90115e-10
8.8119e-11
7.01638e-11
2.42045e-11
-1.82487e-10
9.72008e-11
9.13687e-11
1.12355e-11
-1.99805e-10
9.60727e-11
1.03705e-10
-1.62269e-12
-1.98155e-10
7.96637e-11
7.76101e-11
8.67701e-12
-1.65951e-10
9.12865e-11
8.18472e-11
1.49616e-11
-1.88095e-10
8.81003e-11
8.04913e-11
1.36906e-11
-1.82282e-10
9.21963e-11
9.16817e-11
5.22216e-12
-1.891e-10
8.02797e-11
6.25044e-11
2.43175e-11
-1.67102e-10
9.82432e-11
9.71323e-11
5.56585e-12
-2.00941e-10
8.14659e-11
8.31953e-11
4.20566e-12
-1.68867e-10
8.26898e-11
7.27442e-11
1.57449e-11
-1.71179e-10
8.24559e-11
6.52315e-11
2.30146e-11
-1.70702e-10
8.35815e-11
5.42818e-11
3.48686e-11
-1.72732e-10
9.35417e-11
8.03182e-11
1.8826e-11
-1.92686e-10
9.07462e-11
8.09767e-11
1.57654e-11
-1.87488e-10
9.18798e-11
9.06886e-11
6.31723e-12
-1.88886e-10
7.79273e-11
7.00709e-11
1.42338e-11
-1.62232e-10
2.63763e-11
9.38762e-11
-1.10977e-11
-1.09155e-10
1.86953e-12
8.23272e-12
-1.89272e-11
8.82494e-12
-5.94307e-12
-2.08445e-12
-1.35225e-11
2.155e-11
-9.24072e-12
-6.99083e-12
-7.82646e-12
2.4058e-11
-3.81516e-12
-2.02687e-11
1.14304e-11
1.26535e-11
3.49019e-13
-2.09618e-11
1.6228e-11
4.38479e-12
-2.3229e-12
-1.18574e-11
4.6091e-12
9.57123e-12
-2.99919e-12
-1.59907e-11
7.4295e-12
1.15604e-11
3.7494e-12
-2.40227e-11
2.4938e-11
-4.66471e-12
-9.18873e-13
-1.98693e-11
1.73189e-11
3.46922e-12
-1.48299e-12
-1.62187e-11
1.21256e-11
5.57613e-12
-7.78486e-13
-1.97098e-11
1.47252e-11
5.76307e-12
3.93672e-12
-3.01834e-11
3.11526e-11
-4.90588e-12
1.75643e-12
-1.75638e-11
2.0168e-11
-4.36064e-12
-2.30328e-12
-2.05053e-11
1.80292e-11
4.77931e-12
6.79425e-12
-2.74619e-11
3.42886e-11
-1.3621e-11
-4.92272e-12
-2.08899e-11
2.28683e-11
2.94434e-12
3.64798e-12
-2.78798e-11
4.39915e-11
-1.97597e-11
-1.45199e-11
-1.20374e-11
6.83357e-12
1.97237e-11
1.09945e-12
-2.70191e-11
3.97045e-11
-1.37849e-11
-1.2957e-11
-1.81259e-11
9.19929e-12
2.18836e-11
9.94198e-13
-2.1189e-11
2.69962e-11
-6.80136e-12
-9.51193e-12
-1.09696e-11
-3.5563e-12
2.40378e-11
-9.90851e-12
-1.53354e-11
2.82997e-12
2.2414e-11
-2.04559e-12
-2.35499e-11
1.91771e-11
6.41835e-12
-5.67606e-12
-1.5e-11
1.35341e-11
7.14202e-12
7.27133e-13
-2.17964e-11
2.4055e-11
-2.98575e-12
-7.55026e-12
-5.64115e-12
9.94429e-12
3.24713e-12
-3.14675e-12
-2.1358e-11
1.61227e-11
8.38203e-12
1.54739e-12
-3.29059e-11
3.60131e-11
-4.65454e-12
1.1715e-12
-2.87704e-11
3.48915e-11
-7.29256e-12
5.76322e-13
-3.00564e-11
3.40231e-11
-4.54302e-12
-3.13331e-12
-5.74289e-11
5.92562e-11
1.30607e-12
1.26713e-11
-1.06506e-10
1.20261e-10
-2.64266e-11
-4.10312e-11
2.45894e-11
-7.76466e-11
9.40884e-11
6.38724e-12
1.2393e-11
-1.76238e-11
-1.15639e-12
-1.12988e-11
-9.52209e-12
-8.77686e-12
2.95977e-11
-1.20277e-11
-2.57288e-11
1.56801e-11
2.20764e-11
-7.24874e-12
-2.05707e-11
1.82843e-11
9.53515e-12
-1.49954e-11
-2.04041e-11
7.56528e-12
2.78342e-11
-9.98932e-12
-2.22979e-11
1.80557e-11
1.42315e-11
-5.41281e-12
-1.69179e-11
1.45361e-11
7.79461e-12
-1.0685e-11
-1.88381e-11
1.11695e-11
1.83536e-11
-1.85043e-11
-1.75505e-11
-9.63922e-13
3.70187e-11
-1.36162e-12
-3.8064e-11
3.83023e-11
1.1233e-12
-1.25716e-11
-2.93114e-11
2.56689e-11
1.62141e-11
3.06285e-12
-2.87448e-11
3.50773e-11
-9.39536e-12
-4.9618e-12
-1.17248e-11
2.29718e-12
1.43895e-11
-5.97161e-12
-1.42116e-11
9.67631e-12
1.05069e-11
-9.64608e-12
-1.54578e-11
8.91468e-12
1.61892e-11
-4.18485e-12
-2.79284e-11
2.66379e-11
5.47533e-12
-1.08492e-11
-1.42976e-11
1.29145e-11
1.22323e-11
-1.13444e-11
-1.01243e-11
1.44697e-11
6.99901e-12
-3.46339e-12
-1.0867e-11
2.7811e-11
-1.34806e-11
-1.01441e-11
1.45853e-11
1.10223e-11
-1.54634e-11
-2.92363e-11
2.22471e-12
1.55293e-11
1.14823e-11
4.07857e-11
-1.95045e-11
6.89318e-11
-9.02131e-11
5.54134e-11
3.24198e-11
2.88937e-11
-1.16727e-10
5.61578e-11
2.34442e-11
4.07183e-11
-1.2032e-10
3.45554e-11
2.74185e-11
1.24537e-11
-7.44277e-11
2.91509e-11
1.67323e-11
1.87048e-11
-6.4588e-11
2.72706e-11
1.73932e-11
1.59287e-11
-6.05924e-11
3.90852e-11
3.33891e-11
1.21993e-11
-8.46736e-11
5.69355e-11
1.58658e-11
4.85283e-11
-1.2133e-10
2.78632e-11
1.30436e-11
2.03929e-11
-6.12997e-11
2.87285e-11
2.08402e-11
1.39074e-11
-6.34762e-11
3.05553e-11
2.6254e-11
9.83564e-12
-6.6645e-11
4.64895e-11
1.68089e-11
3.58091e-11
-9.91076e-11
2.27943e-11
8.64272e-12
1.97346e-11
-5.11716e-11
2.33842e-11
1.99021e-11
8.7957e-12
-5.2082e-11
4.20059e-11
3.78787e-11
8.96977e-12
-8.88544e-11
4.08685e-11
1.10517e-11
3.65175e-11
-8.84377e-11
2.86096e-11
1.9834e-12
3.16587e-11
-6.22517e-11
2.26845e-11
1.84661e-11
9.12355e-12
-5.02742e-11
1.14957e-11
2.20482e-11
-7.1368e-12
-2.64071e-11
2.60001e-11
2.553e-11
5.08509e-12
-5.66151e-11
7.78355e-12
2.66106e-12
8.7799e-12
-1.92245e-11
1.10166e-11
3.93633e-11
-2.48542e-11
-2.55257e-11
-7.25866e-12
2.26806e-11
-2.72681e-11
1.18461e-11
1.3526e-11
3.05336e-11
-1.33953e-11
-3.06643e-11
3.41978e-11
9.8015e-12
2.91508e-11
-7.31501e-11
8.70294e-12
1.74584e-12
1.01805e-11
-2.06293e-11
1.59935e-11
6.1775e-11
-1.96329e-11
-5.81356e-11
-3.10452e-11
5.19581e-11
-2.74102e-11
6.49731e-12
-3.23048e-11
3.72471e-11
-2.54219e-11
2.04796e-11
-1.44335e-11
3.36589e-11
-1.2279e-11
-6.94645e-12
-2.23409e-11
4.44973e-11
-2.16818e-11
-4.74617e-13
-1.99666e-11
2.93422e-11
-8.29243e-12
-1.08325e-12
-1.13697e-11
1.90381e-11
2.2053e-11
-2.97214e-11
-1.62272e-11
2.70509e-11
1.35738e-11
-2.43976e-11
-1.83315e-11
2.74205e-11
8.01457e-12
-1.71035e-11
-1.98973e-11
2.75883e-11
5.71151e-12
-1.34025e-11
-1.6576e-11
3.1436e-11
1.58852e-13
-1.50189e-11
-1.96328e-11
2.58155e-11
6.45746e-12
-1.26402e-11
-1.42563e-11
3.18898e-11
5.35025e-12
-2.29838e-11
-1.65579e-11
2.38173e-11
1.06156e-11
-1.7875e-11
-1.05532e-11
3.26433e-11
8.76043e-12
-3.08506e-11
-1.67732e-11
1.40742e-11
2.01988e-11
-1.74998e-11
-7.39118e-12
2.66815e-11
2.03366e-11
-3.96269e-11
-1.80703e-11
2.57966e-11
1.02761e-11
-1.80024e-11
-1.52945e-11
2.66332e-11
9.82914e-12
-2.11678e-11
-1.62102e-11
1.51981e-11
2.2612e-11
-2.15999e-11
-9.64723e-12
2.49045e-11
2.16489e-11
-3.69062e-11
-1.58365e-11
3.2554e-11
4.00134e-12
-2.07188e-11
-2.6397e-11
7.95111e-12
1.59786e-11
2.46733e-12
2.48687e-11
1.49157e-11
5.39117e-11
-9.3696e-11
-7.56338e-11
3.953e-11
-4.92935e-11
8.53974e-11
-1.25837e-11
5.40495e-11
-1.03088e-11
-3.1157e-11
-2.62049e-11
4.7784e-11
-3.89673e-11
1.73883e-11
-3.04691e-11
-1.21366e-11
-6.17756e-12
4.87832e-11
-7.3483e-13
-1.19553e-11
1.75992e-11
-4.90912e-12
-2.64911e-12
-2.20156e-11
2.81921e-11
-3.5274e-12
1.71402e-12
-3.28038e-11
3.89205e-11
-7.83066e-12
6.07893e-12
-2.1274e-11
3.58111e-11
-2.0616e-11
-1.01996e-11
-1.97119e-11
1.95984e-11
1.03131e-11
-5.97326e-13
-3.34297e-11
3.85236e-11
-4.49659e-12
4.77336e-12
-4.10825e-11
5.24528e-11
-1.61437e-11
4.4306e-12
-2.82006e-11
4.31459e-11
-1.93759e-11
-3.14534e-12
-1.6371e-11
2.03106e-11
-7.94255e-13
-1.30293e-12
-2.57928e-11
2.98046e-11
-2.70885e-12
6.54611e-12
-3.75542e-11
4.39039e-11
-1.28958e-11
5.62114e-12
-2.38659e-11
3.03458e-11
-1.2101e-11
-4.04031e-12
-1.03055e-11
5.52934e-12
8.81642e-12
-3.59343e-12
-1.99999e-11
1.95828e-11
4.01051e-12
-2.84027e-12
-2.02988e-11
2.34064e-11
-2.67356e-13
2.01949e-12
-2.67591e-11
3.30748e-11
-8.33516e-12
-3.54525e-12
-1.49179e-11
2.16566e-11
-3.19346e-12
-6.60187e-12
-2.1759e-11
2.32216e-11
5.13927e-12
-2.52783e-13
-2.54949e-11
3.17899e-11
-6.04228e-12
-6.98479e-13
-3.2028e-11
3.74765e-11
-4.74995e-12
1.45116e-12
-1.93066e-11
3.17128e-11
-1.38574e-11
-1.26779e-11
-4.77185e-12
-1.00825e-12
1.8458e-11
-7.27926e-12
-1.882e-11
2.08726e-11
5.22663e-12
-8.19695e-13
-2.40886e-11
2.77055e-11
-2.79721e-12
-4.73223e-13
-1.72178e-11
2.11436e-11
-3.45258e-12
-5.84472e-12
-1.22717e-11
1.24386e-11
5.67786e-12
-5.16993e-12
-1.25042e-11
1.41305e-11
3.54366e-12
-7.84436e-12
-1.73321e-11
2.12497e-11
3.92674e-12
6.7844e-12
1.84763e-11
-1.14413e-11
-1.38194e-11
3.33551e-11
2.6179e-11
8.6891e-12
-6.82232e-11
2.39837e-11
1.80095e-11
7.61813e-12
-4.96113e-11
2.91001e-11
1.97075e-11
1.07416e-11
-5.95492e-11
2.30397e-11
2.05274e-11
3.72643e-12
-4.72936e-11
2.18808e-11
1.85248e-11
4.36287e-12
-4.47684e-11
2.07611e-11
2.25254e-11
-5.40238e-13
-4.27463e-11
1.49652e-11
1.29776e-11
2.9785e-12
-3.09214e-11
1.62753e-11
9.22496e-12
7.84999e-12
-3.33503e-11
1.54891e-11
1.15357e-11
4.74012e-12
-3.1765e-11
1.48065e-11
1.21248e-11
3.33256e-12
-3.02639e-11
1.10351e-11
9.47976e-12
2.23759e-12
-2.27524e-11
1.07325e-11
6.90377e-12
4.33957e-12
-2.19758e-11
9.51689e-12
7.3607e-12
2.64143e-12
-1.9519e-11
8.54556e-12
6.49607e-12
2.43491e-12
-1.74766e-11
8.09675e-12
7.99347e-12
4.91682e-13
-1.65819e-11
5.02584e-12
3.80165e-12
1.60816e-12
-1.04356e-11
5.95126e-12
3.16053e-12
3.0486e-12
-1.21604e-11
5.08605e-12
3.68085e-12
1.61694e-12
-1.03838e-11
3.75065e-12
1.99513e-12
1.99741e-12
-7.74319e-12
3.58784e-12
1.89889e-12
1.83394e-12
-7.32067e-12
2.90263e-12
1.60327e-12
1.43485e-12
-5.94075e-12
2.3813e-12
1.18984e-12
1.30103e-12
-4.87217e-12
2.00975e-12
1.00056e-12
1.08785e-12
-4.09817e-12
1.38059e-12
2.71511e-13
1.2061e-12
-2.85819e-12
1.25048e-12
8.07105e-14
1.21768e-12
-2.54889e-12
2.00841e-13
-4.79508e-14
9.43848e-13
-1.09674e-12
-3.581e-13
-4.6612e-13
6.64281e-13
1.59945e-13
-3.13605e-13
-9.64075e-13
1.13203e-12
1.4565e-13
-2.26317e-13
-6.1274e-13
7.92202e-13
4.68607e-14
-1.26797e-13
-6.40592e-13
7.96344e-13
-2.89495e-14
-1.98588e-13
-7.09698e-13
7.23859e-13
1.8443e-13
-6.72182e-14
-7.92666e-13
9.01879e-13
-4.19798e-14
-8.66661e-14
-6.54013e-13
7.0981e-13
3.08884e-14
-3.53283e-14
-5.96899e-13
6.50909e-13
-1.8685e-14
-4.49379e-14
-6.03676e-13
6.17349e-13
3.12798e-14
-9.97495e-15
-6.07359e-13
6.38644e-13
-2.13177e-14
-1.85167e-14
-5.72903e-13
5.88488e-13
2.95175e-15
-6.06287e-15
-5.38493e-13
5.55966e-13
-1.14211e-14
-3.2613e-15
-5.09279e-13
5.21239e-13
-8.71239e-15
-2.57479e-15
-4.85507e-13
4.93216e-13
-5.12917e-15
2.07412e-15
-4.62781e-13
4.72345e-13
-1.1627e-14
2.24655e-16
-4.34505e-13
4.40425e-13
-6.14592e-15
1.86406e-15
-4.11584e-13
4.17161e-13
-7.43851e-15
1.98792e-15
-3.90161e-13
3.94638e-13
-6.47919e-15
2.78587e-15
-3.70681e-13
3.75431e-13
-7.53035e-15
2.70662e-15
-3.49773e-13
3.54117e-13
-7.05423e-15
2.85317e-15
-3.30394e-13
3.34438e-13
-6.89022e-15
2.65307e-15
-3.13051e-13
3.16637e-13
-6.2442e-15
3.19062e-15
-2.95817e-13
2.9987e-13
-7.23682e-15
2.81426e-15
-2.78975e-13
2.82559e-13
-6.39616e-15
2.95112e-15
-2.63484e-13
2.67079e-13
-6.54802e-15
2.76826e-15
-2.4858e-13
2.51909e-13
-6.08924e-15
2.51419e-15
-2.34901e-13
2.38005e-13
-5.62221e-15
2.48207e-15
-2.21517e-13
2.24626e-13
-5.58377e-15
2.07527e-15
-2.08905e-13
2.11736e-13
-4.9139e-15
1.91568e-15
-1.98814e-13
2.01401e-13
-4.49592e-15
2.87302e-15
-1.85021e-13
1.8844e-13
-6.28559e-15
2.15637e-15
-1.73495e-13
1.76186e-13
-4.84503e-15
2.03626e-15
-1.63441e-13
1.65932e-13
-4.5199e-15
1.98477e-15
-1.54063e-13
1.56413e-13
-4.33202e-15
1.92618e-15
-1.45165e-13
1.4742e-13
-4.19519e-15
1.85783e-15
-1.36696e-13
1.38863e-13
-4.01838e-15
1.77689e-15
-1.28626e-13
1.30702e-13
-3.83242e-15
1.6906e-15
-1.21002e-13
1.22972e-13
-3.66338e-15
1.57962e-15
-1.13861e-13
1.15711e-13
-3.41262e-15
1.52956e-15
-1.0699e-13
1.08787e-13
-3.31513e-15
1.41238e-15
-1.00443e-13
1.02141e-13
-3.10133e-15
1.32372e-15
-9.43309e-14
9.59174e-14
-2.91611e-15
1.30895e-15
-8.85337e-14
9.00725e-14
-2.83718e-15
1.20148e-15
-8.31319e-14
8.45441e-14
-2.60305e-15
1.13898e-15
-7.79501e-14
7.93261e-14
-2.52125e-15
1.07952e-15
-7.29447e-14
7.42917e-14
-2.43109e-15
9.86626e-16
-6.83425e-14
6.95486e-14
-2.20617e-15
9.55804e-16
-6.3998e-14
6.51531e-14
-2.09255e-15
9.09933e-16
-5.98559e-14
6.09665e-14
-2.00329e-15
8.60363e-16
-5.59442e-14
5.698e-14
-1.9048e-15
8.37317e-16
-5.2278e-14
5.32765e-14
-1.85717e-15
7.82028e-16
-4.88763e-14
4.97926e-14
-1.6971e-15
7.58856e-16
-4.56526e-14
4.65066e-14
-1.61903e-15
7.34183e-16
-4.25772e-14
4.34312e-14
-1.5773e-15
6.38722e-16
-3.96633e-14
4.04515e-14
-1.41916e-15
4.96253e-16
-3.69573e-14
3.76731e-14
-1.226e-15
5.11872e-16
-3.42897e-14
3.49626e-14
-1.19121e-15
4.33929e-16
-3.18679e-14
3.2548e-14
-1.12493e-15
4.1304e-16
-2.95393e-14
3.01701e-14
-1.05831e-15
3.80788e-16
-2.73833e-14
2.79809e-14
-9.84987e-16
3.56615e-16
-2.53584e-14
2.59317e-14
-9.3283e-16
3.33483e-16
-2.34215e-14
2.39612e-14
-8.67555e-16
3.18275e-16
-2.15778e-14
2.20956e-14
-8.27714e-16
2.74247e-16
-1.9831e-14
2.0326e-14
-7.74937e-16
2.45963e-16
-1.81927e-14
1.86524e-14
-7.05589e-16
2.44224e-16
-1.6665e-14
1.70888e-14
-6.72077e-16
2.27185e-16
-1.52597e-14
1.56485e-14
-6.21284e-16
2.14406e-16
-1.39003e-14
1.42766e-14
-5.81445e-16
1.82471e-16
-1.25987e-14
1.29644e-14
-5.51989e-16
1.75739e-16
-1.13863e-14
1.1724e-14
-5.18578e-16
1.57374e-16
-1.02495e-14