/*--------------------------------*- C++ -*----------------------------------*\
| =========                 |                                                 |
| \\      /  F ield         | OpenFOAM: The Open Source CFD Toolbox           |
|  \\    /   O peration     | Version:  v1706                                 |
|   \\  /    A nd           | Web:      www.OpenFOAM.com                      |
|    \\/     M anipulation  |                                                 |
\*---------------------------------------------------------------------------*/
FoamFile
{
    version     2.0;
    format      ascii;
    class       volVectorField;
    location    "0.5";
    object      U;
}
// * * * * * * * * * * * * * * * * * * * * * * * * * * * * * * * * * * * * * //

dimensions      [0 1 -1 0 0 0 0];


internalField   nonuniform List<vector> 
142647
(
(-0.000601405 0 -1.81945e-07)
(-0.000599023 0 -3.80694e-07)
(-0.000593854 0 -6.75968e-07)
(-0.000585472 0 -1.0083e-06)
(-0.000573399 0 -1.33024e-06)
(-0.000557156 0 -1.69566e-06)
(-0.000536544 0 -2.1241e-06)
(-0.000511287 0 -2.56071e-06)
(-0.00048108 0 -3.01522e-06)
(-0.000445755 0 -3.47322e-06)
(-0.000405184 0 -3.96388e-06)
(-0.000359473 0 -4.45109e-06)
(-0.000308869 0 -4.9141e-06)
(-0.000253462 0 -5.35945e-06)
(-0.000194102 0 -5.7711e-06)
(-0.00013237 0 -6.15911e-06)
(-7.36551e-05 0 -6.44347e-06)
(-2.61158e-05 0 -6.74976e-06)
(5.72236e-05 0 -7.08906e-06)
(0.00014835 0 -7.37243e-06)
(0.00023465 0 -7.59387e-06)
(0.000320538 0 -7.72649e-06)
(0.000406004 0 -7.71544e-06)
(0.000490585 0 -7.61608e-06)
(0.000573406 0 -7.46948e-06)
(0.000653834 0 -7.26269e-06)
(0.000730805 0 -6.90297e-06)
(0.000803401 0 -6.48039e-06)
(0.000870339 0 -5.97609e-06)
(0.00093133 0 -5.35587e-06)
(0.000985278 0 -4.65974e-06)
(0.00103146 0 -3.89226e-06)
(0.00106895 0 -3.05676e-06)
(0.0010971 0 -2.18912e-06)
(0.00111571 0 -1.26331e-06)
(0.00112414 0 -3.14457e-07)
(0.00112201 0 6.59432e-07)
(0.0011093 0 1.65258e-06)
(0.00108589 0 2.65147e-06)
(0.00105205 0 3.64159e-06)
(0.00100796 0 4.64427e-06)
(0.000954123 0 5.5692e-06)
(0.000890875 0 6.48716e-06)
(0.000819023 0 7.3903e-06)
(0.000739075 0 8.15877e-06)
(0.00065208 0 8.82378e-06)
(0.00055885 0 9.36528e-06)
(0.000460364 0 9.7261e-06)
(0.000357516 0 9.95461e-06)
(0.000252004 0 1.00658e-05)
(0.000150461 0 1.02429e-05)
(5.79325e-05 0 1.0258e-05)
(-4.90614e-05 0 1.01569e-05)
(-0.00015591 0 9.70076e-06)
(-0.000256346 0 9.24437e-06)
(-0.000351135 0 8.71825e-06)
(-0.000439868 0 8.16649e-06)
(-0.000521865 0 7.46334e-06)
(-0.000596288 0 6.75704e-06)
(-0.000662486 0 5.92399e-06)
(-0.000720027 0 5.14841e-06)
(-0.000768484 0 4.27079e-06)
(-0.000807574 0 3.39316e-06)
(-0.000837374 0 2.56967e-06)
(-0.00085724 0 1.63763e-06)
(-0.000867376 0 7.51895e-07)
(-0.000868014 0 -7.51299e-08)
(-0.000860422 0 -6.59734e-07)
(-0.000845409 0 -1.42517e-06)
(-0.000823546 0 -2.06171e-06)
(-0.000795896 0 -2.57903e-06)
(-0.000762835 0 -3.12507e-06)
(-0.000724914 0 -3.51359e-06)
(-0.000683507 0 -3.81781e-06)
(-0.000639177 0 -4.0358e-06)
(-0.000592408 0 -4.15364e-06)
(-0.000544976 0 -4.14945e-06)
(-0.000497914 0 -4.06455e-06)
(-0.00045232 0 -4.0382e-06)
(-0.00040639 0 -4.12698e-06)
(-0.000362959 0 -3.54815e-06)
(-0.000320435 0 -4.13525e-06)
(-0.000284407 0 -4.71711e-06)
(-0.000249353 0 -4.70949e-06)
(-0.000215548 0 -4.54371e-06)
(-0.000185305 0 -4.40984e-06)
(-0.000157782 0 -4.26589e-06)
(-0.000133424 0 -2.72981e-06)
(-0.000108824 0 -2.21922e-06)
(-8.92583e-05 0 -2.12286e-06)
(-7.26204e-05 0 -1.78107e-06)
(-5.6543e-05 0 -1.22925e-06)
(-4.58756e-05 0 -1.53909e-06)
(-3.3191e-05 0 -9.42501e-07)
(-2.46801e-05 0 -1.33456e-06)
(-1.75678e-05 0 -2.1182e-06)
(-2.69853e-06 0 -1.61904e-07)
(3.74933e-06 0 -3.72345e-07)
(7.86918e-06 0 -1.03636e-06)
(4.98046e-06 0 -2.0239e-06)
(1.56464e-05 0 -2.51747e-07)
(2.38189e-05 0 2.78831e-08)
(2.67286e-05 0 -3.75285e-08)
(2.93849e-05 0 -1.41659e-07)
(3.02057e-05 0 -5.30193e-07)
(3.38486e-05 0 -1.65453e-07)
(3.8609e-05 0 -1.11377e-06)
(3.62246e-05 0 4.02539e-07)
(3.93959e-05 0 -5.99586e-08)
(4.3213e-05 0 8.91426e-07)
(4.39601e-05 0 -4.76815e-07)
(4.73194e-05 0 1.1928e-07)
(4.88428e-05 0 -8.60004e-08)
(5.18398e-05 0 6.47746e-07)
(5.33741e-05 0 -3.43624e-07)
(5.49417e-05 0 4.9001e-07)
(5.65093e-05 0 -3.90815e-07)
(5.80963e-05 0 4.25367e-07)
(5.98536e-05 0 -4.27882e-07)
(6.32033e-05 0 -1.0474e-07)
(6.33811e-05 0 8.51934e-08)
(6.31294e-05 0 -1.18231e-07)
(6.41197e-05 0 -1.80342e-07)
(6.31878e-05 0 -2.77976e-07)
(6.50137e-05 0 -6.37811e-07)
(6.58346e-05 0 -4.21251e-07)
(6.67714e-05 0 7.48494e-08)
(6.62177e-05 0 -9.11177e-07)
(6.75579e-05 0 -5.07261e-07)
(6.71111e-05 0 -6.69545e-07)
(6.83304e-05 0 -3.86321e-08)
(6.78393e-05 0 -6.58896e-07)
(6.71513e-05 0 -7.14172e-07)
(6.90378e-05 0 2.24259e-07)
(6.93418e-05 0 -6.2323e-07)
(6.82327e-05 0 -5.85979e-07)
(6.95327e-05 0 -4.91363e-07)
(6.78533e-05 0 -7.33534e-07)
(6.97427e-05 0 -4.9738e-07)
(6.84125e-05 0 -5.0691e-07)
(6.58846e-05 0 -3.64635e-07)
(6.56573e-05 0 -4.46144e-07)
(6.52351e-05 0 -3.80875e-07)
(6.60818e-05 0 -3.42977e-07)
(6.47142e-05 0 -2.65289e-07)
(6.27123e-05 0 -3.25077e-07)
(6.32214e-05 0 -2.8295e-07)
(6.21185e-05 0 -1.95094e-07)
(6.01105e-05 0 -1.86473e-07)
(5.9226e-05 0 -1.66446e-07)
(5.83437e-05 0 -1.26049e-07)
(5.70442e-05 0 -9.15267e-08)
(5.64823e-05 0 -1.98395e-07)
(5.56928e-05 0 -1.31192e-07)
(5.43517e-05 0 -9.19106e-08)
(5.25198e-05 0 7.54462e-09)
(5.07201e-05 0 -1.46087e-07)
(5.01416e-05 0 -9.42732e-08)
(4.88082e-05 0 -6.04427e-08)
(4.71245e-05 0 -9.6624e-08)
(4.61153e-05 0 -5.84678e-08)
(4.4736e-05 0 -7.82009e-08)
(4.35201e-05 0 -2.05088e-07)
(4.24217e-05 0 -1.36759e-07)
(4.10662e-05 0 -1.62893e-07)
(3.97806e-05 0 -1.96576e-07)
(3.87633e-05 0 -1.28138e-07)
(3.73156e-05 0 -1.37037e-07)
(3.64294e-05 0 -2.5424e-07)
(3.55303e-05 0 -1.77927e-07)
(3.43211e-05 0 -1.45931e-07)
(3.30943e-05 0 -9.89263e-08)
(3.2033e-05 0 -1.82149e-07)
(3.132e-05 0 -1.16272e-07)
(3.00346e-05 0 -9.67028e-08)
(2.91379e-05 0 -1.65826e-07)
(2.83128e-05 0 -1.37154e-07)
(2.73245e-05 0 -1.30786e-07)
(2.6418e-05 0 -1.42569e-07)
(2.56397e-05 0 -1.26608e-07)
(2.47172e-05 0 -1.12606e-07)
(2.3845e-05 0 -1.17283e-07)
(2.30543e-05 0 -1.09945e-07)
(2.23033e-05 0 -1.00273e-07)
(2.15106e-05 0 -1.00524e-07)
(2.08069e-05 0 -1.01886e-07)
(2.01064e-05 0 -9.15918e-08)
(1.94833e-05 0 -1.34373e-07)
(1.89536e-05 0 -7.15065e-08)
(1.80456e-05 0 -4.94762e-08)
(1.7424e-05 0 -4.12179e-08)
(1.68853e-05 0 -3.39401e-08)
(1.63181e-05 0 -2.18648e-08)
(1.56938e-05 0 -2.83885e-08)
(1.51287e-05 0 -2.79414e-08)
(1.46415e-05 0 -3.04766e-08)
(1.4152e-05 0 -1.62377e-08)
(1.362e-05 0 -1.4433e-08)
(1.31112e-05 0 -1.03097e-08)
(1.26439e-05 0 -1.89857e-08)
(1.22389e-05 0 -2.58936e-08)
(1.18062e-05 0 -1.35487e-08)
(1.13518e-05 0 -2.05758e-08)
(1.09576e-05 0 -2.54682e-08)
(1.0606e-05 0 -3.68358e-08)
(1.02302e-05 0 -1.94457e-08)
(9.81372e-06 0 -2.27928e-08)
(9.46781e-06 0 -3.09314e-08)
(9.17476e-06 0 -5.10523e-08)
(8.852e-06 0 -3.61157e-08)
(8.49308e-06 0 -4.74276e-08)
(8.18162e-06 0 -3.84963e-08)
(7.92077e-06 0 -4.934e-08)
(7.60833e-06 0 -3.55099e-08)
(7.31319e-06 0 -4.20362e-08)
(7.07654e-06 0 -5.10723e-08)
(6.83233e-06 0 -6.05106e-08)
(6.52281e-06 0 -4.79979e-08)
(6.27154e-06 0 -4.98496e-08)
(6.07619e-06 0 -7.30906e-08)
(5.89557e-06 0 -5.1645e-08)
(5.59077e-06 0 -5.77794e-08)
(5.39265e-06 0 -4.87001e-08)
(5.05662e-06 0 -1.43532e-08)
(5.16282e-06 0 -7.44151e-08)
(4.92193e-06 0 -6.97313e-08)
(4.72589e-06 0 -6.35365e-08)
(4.56041e-06 0 -8.05741e-08)
(4.42287e-06 0 -8.87585e-08)
(4.26838e-06 0 -7.47363e-08)
(4.08752e-06 0 -6.24042e-08)
(3.93945e-06 0 -5.08148e-08)
(3.81339e-06 0 -6.06532e-08)
(3.69065e-06 0 -6.55628e-08)
(3.52851e-06 0 -5.52486e-08)
(3.38324e-06 0 -6.44607e-08)
(3.29794e-06 0 -7.20167e-08)
(3.16869e-06 0 -6.74669e-08)
(3.01377e-06 0 -5.49244e-08)
(2.89871e-06 0 -4.53276e-08)
(2.80252e-06 0 -5.01088e-08)
(2.72064e-06 0 -5.70529e-08)
(2.55227e-06 0 -2.12934e-08)
(2.66534e-06 0 1.91105e-08)
(2.45303e-06 0 -2.86078e-08)
(2.51877e-06 0 1.66225e-08)
(2.52203e-06 0 -1.68505e-08)
(2.36568e-06 0 -7.47681e-09)
(2.35134e-06 0 3.93108e-09)
(2.28587e-06 0 2.99922e-08)
(2.16033e-06 0 3.14147e-08)
(2.27782e-06 0 5.10371e-08)
(2.13604e-06 0 -7.39411e-09)
(2.02033e-06 0 4.53161e-08)
(1.98766e-06 0 5.99848e-09)
(1.97765e-06 0 3.01802e-08)
(1.82568e-06 0 1.38327e-08)
(1.78048e-06 0 6.56272e-09)
(1.69387e-06 0 1.64858e-08)
(1.73265e-06 0 -1.16893e-08)
(1.56233e-06 0 -2.25195e-09)
(1.50377e-06 0 -2.05219e-08)
(1.42294e-06 0 -1.60305e-08)
(1.5102e-06 0 -4.91185e-08)
(1.48255e-06 0 -4.05833e-08)
(1.35632e-06 0 1.31562e-08)
(1.39205e-06 0 -3.75776e-08)
(1.22275e-06 0 -7.09337e-08)
(1.13663e-06 0 -4.14666e-08)
(1.20801e-06 0 -5.87284e-08)
(1.11868e-06 0 -1.11978e-07)
(1.24445e-06 0 1.61763e-08)
(1.14098e-06 0 1.36209e-08)
(1.15423e-06 0 -1.0499e-08)
(1.10552e-06 0 1.73454e-08)
(1.0255e-06 0 1.05261e-08)
(9.3187e-07 0 9.89826e-09)
(9.83651e-07 0 -2.09177e-08)
(8.93093e-07 0 1.61119e-08)
(9.21765e-07 0 -1.848e-08)
(8.26823e-07 0 1.02519e-08)
(8.31485e-07 0 -8.02644e-09)
(8.16408e-07 0 5.29374e-09)
(8.37167e-07 0 -1.26848e-08)
(7.42357e-07 0 1.42879e-08)
(7.31798e-07 0 5.40443e-09)
(7.69134e-07 0 -7.00257e-09)
(7.44877e-07 0 9.23503e-11)
(6.77903e-07 0 1.30754e-08)
(6.4795e-07 0 -2.12449e-10)
(6.43381e-07 0 -3.00448e-09)
(6.47064e-07 0 -4.58926e-09)
(5.79447e-07 0 -6.58927e-09)
(5.31536e-07 0 -1.14603e-08)
(5.03848e-07 0 -1.12219e-08)
(6.01467e-07 0 -1.07434e-08)
(5.61382e-07 0 1.77015e-09)
(4.56774e-07 0 5.74929e-08)
(1.40493e-07 0 -6.9729e-08)
(2.27043e-07 0 -6.53117e-08)
(1.8548e-07 0 -5.46101e-08)
(1.88749e-07 0 -3.8323e-08)
(1.60415e-07 0 -5.44193e-08)
(1.09095e-07 0 -4.32847e-08)
(1.38178e-07 0 -5.56927e-08)
(8.64102e-08 0 -3.85204e-08)
(1.10243e-07 0 -5.19898e-08)
(1.00261e-07 0 -4.22535e-08)
(9.73577e-08 0 -5.00495e-08)
(7.2339e-08 0 -2.93373e-08)
(7.21398e-08 0 -4.68065e-08)
(1.02689e-07 0 -3.36793e-08)
(8.94898e-08 0 -3.30182e-08)
(6.29026e-08 0 -1.4925e-08)
(5.12696e-08 0 -1.46512e-08)
(4.40104e-08 0 -2.40286e-08)
(8.34554e-08 0 -3.21807e-08)
(8.29655e-08 0 -1.49082e-08)
(6.40786e-08 0 -2.45011e-08)
(1.9944e-08 0 -2.24344e-09)
(5.98454e-08 0 -2.48186e-08)
(-4.84271e-08 0 4.83848e-09)
(7.66033e-08 0 1.17228e-08)
(-1.01598e-08 0 2.62272e-09)
(6.41135e-09 0 1.69598e-09)
(-3.72341e-07 0 -2.52502e-08)
(1.70831e-07 0 -7.85849e-08)
(7.85774e-07 0 -2.35384e-07)
(2.62106e-07 0 -1.28297e-07)
(2.65341e-07 0 -1.60452e-07)
(1.64967e-07 0 -1.35794e-07)
(1.4448e-07 0 -1.49959e-07)
(1.68543e-07 0 -1.48866e-07)
(2.03768e-07 0 -1.4949e-07)
(1.58581e-07 0 -1.42949e-07)
(1.06168e-07 0 -1.36242e-07)
(2.10596e-07 0 -1.50423e-07)
(2.48473e-07 0 -1.49773e-07)
(1.5743e-07 0 -1.23589e-07)
(1.52732e-07 0 -1.41533e-07)
(1.3985e-07 0 -1.36476e-07)
(1.80446e-07 0 -1.42931e-07)
(7.05757e-08 0 -1.23414e-07)
(2.23944e-07 0 -1.52105e-07)
(1.71368e-07 0 -1.26597e-07)
(1.22717e-07 0 -1.28358e-07)
(6.45828e-08 0 -1.27702e-07)
(3.48581e-08 0 -1.28589e-07)
(1.64557e-07 0 -1.4486e-07)
(1.63936e-07 0 -1.40734e-07)
(1.88026e-07 0 -1.42849e-07)
(1.07435e-07 0 -1.20285e-07)
(2.86088e-07 0 -6.35734e-08)
(1.38141e-07 0 1.06061e-09)
(5.39457e-08 0 1.48326e-08)
(2.35214e-08 0 1.65111e-08)
(-4.78401e-08 0 6.4695e-09)
(-5.97989e-08 0 4.82234e-10)
(-3.11738e-08 0 6.06172e-09)
(-4.67665e-08 0 7.77611e-09)
(-8.76959e-08 0 -2.40133e-09)
(-5.26911e-08 0 2.46007e-09)
(-3.99067e-08 0 1.69358e-09)
(-5.65636e-08 0 8.31972e-10)
(-1.23731e-07 0 -3.68821e-09)
(-6.48267e-08 0 -2.78924e-10)
(-6.73667e-08 0 3.5969e-09)
(-1.2008e-07 0 -9.30523e-09)
(-9.60917e-08 0 8.24578e-09)
(-1.44851e-07 0 -5.00997e-09)
(-4.43363e-08 0 2.39879e-08)
(-1.3139e-07 0 -9.78902e-10)
(-4.37811e-08 0 2.07627e-08)
(-8.95589e-08 0 -9.75507e-10)
(-7.44671e-09 0 1.78612e-08)
(-4.10783e-08 0 1.7119e-08)
(-7.7925e-08 0 4.55902e-09)
(-7.2192e-08 0 1.06272e-08)
(-9.1338e-08 0 2.00358e-09)
(-4.04058e-08 0 1.31813e-08)
(-6.6034e-08 0 5.6118e-09)
(-1.27685e-07 0 -1.81397e-09)
(-1.12094e-07 0 -2.60515e-09)
(-1.16966e-07 0 -3.37386e-09)
(-2.17035e-07 0 -6.19303e-10)
(-5.00167e-07 0 -3.1508e-08)
(3.5782e-07 0 6.24596e-08)
(1.36446e-07 0 -2.49742e-08)
(4.9323e-08 0 9.04413e-09)
(-4.71982e-08 0 6.72281e-09)
(-5.12021e-08 0 -5.61084e-09)
(-3.366e-08 0 9.50788e-09)
(-4.96321e-08 0 -2.03652e-09)
(-4.41099e-08 0 -9.12101e-09)
(-4.5067e-08 0 4.16403e-09)
(-2.09607e-08 0 2.25622e-08)
(-1.11419e-07 0 -8.7145e-09)
(-8.06422e-08 0 5.17885e-09)
(-9.92244e-08 0 -1.80132e-08)
(-2.68757e-08 0 -5.72047e-10)
(-3.83415e-08 0 1.50345e-10)
(-5.49467e-08 0 7.96551e-09)
(-1.07607e-07 0 3.48901e-09)
(-6.47146e-08 0 1.43115e-08)
(-8.09464e-08 0 1.5458e-08)
(-1.20592e-07 0 4.18171e-09)
(-9.59218e-08 0 6.06561e-09)
(6.82965e-08 0 3.1567e-08)
(-2.72136e-07 0 -4.67991e-08)
(-1.56238e-08 0 -7.80391e-08)
(-5.63242e-08 0 -7.71505e-08)
(1.4901e-08 0 -4.37483e-08)
(-1.34664e-08 0 -3.35672e-08)
(-1.65633e-08 0 -3.08491e-08)
(2.47189e-08 0 -5.23203e-08)
(-8.77407e-08 0 -7.87473e-08)
(-2.47211e-08 0 -3.09673e-08)
(-4.12846e-09 0 -3.35038e-08)
(1.65972e-08 0 -3.84637e-08)
(-4.18838e-08 0 -6.19494e-08)
(-1.90928e-08 0 -2.24021e-08)
(1.8262e-08 0 -2.46527e-08)
(4.84961e-08 0 -5.70482e-08)
(-6.72131e-08 0 -5.26537e-08)
(-5.76714e-08 0 -3.01796e-08)
(2.30823e-08 0 -2.26988e-08)
(6.8202e-08 0 -7.16657e-09)
(7.90307e-08 0 -2.98109e-08)
(2.31483e-08 0 4.33041e-09)
(1.9596e-07 0 -4.96933e-09)
(1.34545e-07 0 2.60115e-08)
(1.3738e-07 0 -1.17559e-08)
(-7.49314e-09 0 -4.17313e-08)
(3.13504e-08 0 2.57587e-09)
(2.01609e-07 0 -3.6702e-08)
(2.55135e-07 0 2.9166e-08)
(1.68348e-07 0 3.10084e-08)
(1.56909e-07 0 9.4481e-09)
(1.50774e-07 0 1.62991e-08)
(6.01e-08 0 1.61328e-08)
(2.40782e-08 0 3.55044e-09)
(9.53396e-08 0 9.75743e-09)
(9.56825e-08 0 1.31913e-08)
(9.68813e-08 0 1.49791e-08)
(1.11223e-07 0 1.10459e-08)
(6.34733e-08 0 1.43577e-08)
(1.10646e-07 0 7.50781e-09)
(4.87627e-08 0 1.04512e-08)
(1.01284e-07 0 2.41862e-09)
(-5.0013e-09 0 1.12603e-08)
(9.52814e-08 0 -1.18959e-09)
(8.74334e-08 0 1.26106e-08)
(8.39528e-08 0 8.77233e-09)
(1.4622e-08 0 9.35267e-09)
(9.44056e-08 0 4.05006e-10)
(1.19807e-07 0 7.82247e-09)
(3.50956e-08 0 2.16843e-08)
(-9.24161e-08 0 -4.86591e-08)
(2.29694e-07 0 8.86661e-08)
(2.52641e-07 0 7.22912e-10)
(2.13183e-07 0 2.31766e-08)
(1.48726e-07 0 3.50976e-08)
(-4.14795e-08 0 -2.13055e-08)
(-8.53553e-08 0 -1.83383e-08)
(-1.18735e-07 0 -2.20931e-08)
(-1.0432e-07 0 -2.60724e-08)
(-8.15632e-08 0 -2.5926e-09)
(-1.14884e-07 0 -1.83269e-08)
(-1.55219e-07 0 -2.93814e-08)
(-1.21684e-07 0 -3.43414e-08)
(-7.16907e-08 0 -1.92785e-08)
(-1.01667e-07 0 -1.74043e-08)
(-1.53296e-07 0 -1.96454e-08)
(-9.75882e-08 0 -1.36018e-08)
(-3.59054e-08 0 3.03035e-09)
(-6.90442e-08 0 2.48879e-10)
(-7.91413e-08 0 -2.29104e-09)
(-9.61812e-08 0 -1.00123e-08)
(-6.73647e-08 0 -1.0028e-08)
(-7.61366e-08 0 -4.66223e-09)
(-9.9143e-08 0 -1.52139e-08)
(-1.12713e-07 0 -1.55849e-08)
(-8.86956e-08 0 -2.43147e-08)
(8.32262e-09 0 3.25271e-09)
(-6.86184e-08 0 -9.76573e-09)
(-9.11217e-08 0 -1.63617e-08)
(-6.68146e-08 0 -1.34216e-08)
(-4.52765e-08 0 -3.14154e-09)
(-4.98155e-08 0 -4.65956e-09)
(-8.79512e-08 0 2.32235e-09)
(1.60016e-08 0 -1.12185e-08)
(5.81322e-08 0 -5.03185e-08)
(4.68243e-08 0 -3.49687e-08)
(4.13024e-08 0 -4.32639e-08)
(5.26351e-08 0 -3.43719e-08)
(4.21253e-08 0 -3.28675e-08)
(6.00946e-08 0 -3.0866e-08)
(2.59285e-08 0 -2.14455e-08)
(7.89661e-09 0 -2.32095e-08)
(2.42481e-08 0 -2.23432e-08)
(2.51846e-08 0 -2.17353e-08)
(2.32181e-08 0 -1.56201e-08)
(1.14979e-08 0 -1.54272e-08)
(1.52342e-08 0 -1.37086e-08)
(1.26921e-08 0 -1.23188e-08)
(2.07136e-08 0 -1.15738e-08)
(7.03469e-09 0 -6.84457e-09)
(1.0541e-09 0 -8.13347e-09)
(3.81842e-09 0 -7.02761e-09)
(3.19667e-10 0 -4.90288e-09)
(1.37219e-09 0 -4.80791e-09)
(1.78853e-09 0 -3.88327e-09)
(1.05035e-09 0 -3.16668e-09)
(6.45738e-10 0 -2.70319e-09)
(-1.29828e-09 0 -1.76441e-09)
(-1.94306e-09 0 -1.56185e-09)
(-9.52703e-10 0 -4.61974e-10)
(-3.08639e-09 0 3.26843e-10)
(-4.55696e-09 0 3.14716e-10)
(-3.17063e-09 0 2.4255e-10)
(-3.2315e-09 0 1.30825e-10)
(-2.90181e-09 0 2.27518e-10)
(-3.25332e-09 0 5.75361e-11)
(-2.5422e-09 0 9.19704e-11)
(-2.30966e-09 0 3.52169e-11)
(-2.19673e-09 0 5.04103e-11)
(-2.2014e-09 0 7.32321e-12)
(-1.99085e-09 0 2.05137e-11)
(-1.85118e-09 0 5.4514e-12)
(-1.7257e-09 0 2.23471e-12)
(-1.62143e-09 0 1.96086e-12)
(-1.53788e-09 0 -4.20178e-12)
(-1.42777e-09 0 -1.65174e-12)
(-1.34625e-09 0 -3.14571e-12)
(-1.26878e-09 0 -3.07853e-12)
(-1.2012e-09 0 -4.01114e-12)
(-1.12833e-09 0 -3.81389e-12)
(-1.06204e-09 0 -3.83445e-12)
(-1.00249e-09 0 -3.5385e-12)
(-9.45573e-10 0 -4.13335e-12)
(-8.88463e-10 0 -3.63916e-12)
(-8.37151e-10 0 -3.72295e-12)
(-7.87286e-10 0 -3.46211e-12)
(-7.41742e-10 0 -3.19948e-12)
(-6.97768e-10 0 -3.18319e-12)
(-6.52889e-10 0 -2.77594e-12)
(-6.21495e-10 0 -2.56535e-12)
(-5.79295e-10 0 -3.56219e-12)
(-5.41166e-10 0 -2.7168e-12)
(-5.08504e-10 0 -2.50741e-12)
(-4.78139e-10 0 -2.39479e-12)
(-4.49489e-10 0 -2.3053e-12)
(-4.22341e-10 0 -2.20054e-12)
(-3.96572e-10 0 -2.08566e-12)
(-3.72273e-10 0 -1.97829e-12)
(-3.49547e-10 0 -1.8275e-12)
(-3.27869e-10 0 -1.75902e-12)
(-3.07245e-10 0 -1.63134e-12)
(-2.88033e-10 0 -1.51646e-12)
(-2.69961e-10 0 -1.47581e-12)
(-2.53001e-10 0 -1.33702e-12)
(-2.36933e-10 0 -1.2771e-12)
(-2.21538e-10 0 -1.22132e-12)
(-2.07219e-10 0 -1.09243e-12)
(-1.93849e-10 0 -1.02391e-12)
(-1.8117e-10 0 -9.74601e-13)
(-1.69155e-10 0 -9.04104e-13)
(-1.58004e-10 0 -8.76391e-13)
(-1.47592e-10 0 -7.90599e-13)
(-1.37728e-10 0 -7.33894e-13)
(-1.28465e-10 0 -7.16934e-13)
(-1.19645e-10 0 -6.21381e-13)
(-1.11471e-10 0 -4.87816e-13)
(-1.03468e-10 0 -4.73855e-13)
(-9.62679e-11 0 -4.24131e-13)
(-8.92498e-11 0 -3.89056e-13)
(-8.28055e-11 0 -3.48391e-13)
(-7.67918e-11 0 -3.28939e-13)
(-7.10121e-11 0 -2.99242e-13)
(-6.55374e-11 0 -2.80168e-13)
(-6.03343e-11 0 -2.46552e-13)
(-5.54552e-11 0 -2.10547e-13)
(-5.08865e-11 0 -1.95106e-13)
(-4.66706e-11 0 -1.69316e-13)
(-4.26109e-11 0 -1.61931e-13)
(-3.87364e-11 0 -1.36798e-13)
(-3.50817e-11 0 -1.28817e-13)
(-3.16431e-11 0 -1.10786e-13)
(-2.83107e-11 0 -9.2046e-14)
(-2.51848e-11 0 -8.08058e-14)
(-2.23684e-11 0 -7.19864e-14)
(-1.94833e-11 0 -6.41917e-14)
(-1.67213e-11 0 -6.41988e-14)
(-1.40238e-11 0 -4.26232e-14)
(-1.15059e-11 0 -3.27907e-14)
(-9.09533e-12 0 -3.30213e-14)
(-6.66944e-12 0 -1.60475e-14)
(-4.30217e-12 0 -2.39136e-14)
(-2.03835e-12 0 -2.88658e-14)
(-2.79495e-13 0 -3.71217e-14)
(-0.000601709 0 -2.00042e-07)
(-0.000599986 0 -7.50951e-07)
(-0.000595612 0 -1.97509e-06)
(-0.000588056 0 -3.26497e-06)
(-0.000576986 0 -4.53286e-06)
(-0.000561818 0 -5.95222e-06)
(-0.00054236 0 -7.32662e-06)
(-0.000518301 0 -8.93871e-06)
(-0.000489368 0 -1.06101e-05)
(-0.000455373 0 -1.23834e-05)
(-0.000416095 0 -1.42466e-05)
(-0.000371663 0 -1.60671e-05)
(-0.000322333 0 -1.78182e-05)
(-0.00026802 0 -1.95003e-05)
(-0.000209564 0 -2.11657e-05)
(-0.000148163 0 -2.27778e-05)
(-8.77416e-05 0 -2.40353e-05)
(-4.0258e-05 0 -2.4616e-05)
(3.12707e-05 0 -2.57193e-05)
(0.00012642 0 -2.6804e-05)
(0.000213066 0 -2.75211e-05)
(0.000299032 0 -2.77511e-05)
(0.000384731 0 -2.77068e-05)
(0.000469698 0 -2.74972e-05)
(0.000552953 0 -2.66165e-05)
(0.000634224 0 -2.56709e-05)
(0.000712369 0 -2.4312e-05)
(0.000786394 0 -2.29456e-05)
(0.00085453 0 -2.08483e-05)
(0.000917223 0 -1.87616e-05)
(0.000972992 0 -1.64333e-05)
(0.00102121 0 -1.39072e-05)
(0.00106096 0 -1.12095e-05)
(0.00109151 0 -8.2073e-06)
(0.00111259 0 -5.08176e-06)
(0.00112345 0 -1.3708e-06)
(0.00112402 0 1.70858e-06)
(0.00111398 0 5.02237e-06)
(0.00109321 0 8.64861e-06)
(0.00106186 0 1.21954e-05)
(0.00102033 0 1.5765e-05)
(0.000968854 0 1.89819e-05)
(0.000907754 0 2.19602e-05)
(0.000838216 0 2.44771e-05)
(0.000760131 0 2.66433e-05)
(0.000674752 0 2.85491e-05)
(0.00058291 0 3.04353e-05)
(0.000485552 0 3.21365e-05)
(0.000383723 0 3.36564e-05)
(0.000278035 0 3.48628e-05)
(0.000175141 0 3.4725e-05)
(7.94835e-05 0 3.49117e-05)
(-2.07986e-05 0 3.60352e-05)
(-0.0001306 0 3.52052e-05)
(-0.000232349 0 3.37206e-05)
(-0.000328599 0 3.20206e-05)
(-0.000418879 0 3.01551e-05)
(-0.000502779 0 2.75906e-05)
(-0.000579125 0 2.52287e-05)
(-0.000647553 0 2.22016e-05)
(-0.000707183 0 1.94375e-05)
(-0.000758036 0 1.61416e-05)
(-0.000799667 0 1.31386e-05)
(-0.000831751 0 1.03854e-05)
(-0.000854215 0 7.24652e-06)
(-0.000866795 0 4.69488e-06)
(-0.000869719 0 2.07688e-06)
(-0.000863757 0 -5.8408e-07)
(-0.000850722 0 -3.39643e-06)
(-0.000830586 0 -5.63188e-06)
(-0.000804221 0 -7.66223e-06)
(-0.000772395 0 -9.55822e-06)
(-0.000735573 0 -1.11827e-05)
(-0.000695084 0 -1.20143e-05)
(-0.000651284 0 -1.25998e-05)
(-0.000604981 0 -1.36476e-05)
(-0.000557796 0 -1.36407e-05)
(-0.000511004 0 -1.31877e-05)
(-0.000463741 0 -1.29435e-05)
(-0.000417046 0 -1.34245e-05)
(-0.000372726 0 -1.18822e-05)
(-0.000330558 0 -1.28787e-05)
(-0.000289634 0 -9.17599e-06)
(-0.000253794 0 -7.41613e-06)
(-0.000219128 0 -7.39264e-06)
(-0.00018782 0 -6.23838e-06)
(-0.000159552 0 -5.29304e-06)
(-0.000134974 0 -3.97039e-06)
(-0.000115178 0 -7.80896e-06)
(-9.52521e-05 0 -6.51305e-06)
(-7.7706e-05 0 -5.8806e-06)
(-6.28545e-05 0 -6.23822e-06)
(-4.86148e-05 0 -4.47906e-06)
(-3.83459e-05 0 -5.23823e-06)
(-2.74474e-05 0 -3.55239e-06)
(-1.8443e-05 0 -2.50524e-06)
(-9.72411e-06 0 -6.28191e-06)
(-1.64999e-06 0 -6.69956e-06)
(4.75513e-06 0 -5.14472e-06)
(1.18839e-05 0 -1.5858e-07)
(1.16583e-05 0 -4.57551e-06)
(1.77598e-05 0 -7.00863e-06)
(2.28922e-05 0 -6.06525e-06)
(2.61743e-05 0 -6.14374e-06)
(2.74438e-05 0 -4.81769e-06)
(3.08393e-05 0 -5.06081e-06)
(3.43651e-05 0 -5.26038e-06)
(3.958e-05 0 -9.71542e-07)
(4.12461e-05 0 -8.06127e-07)
(4.44271e-05 0 -1.35888e-06)
(4.5209e-05 0 -1.51477e-06)
(4.89222e-05 0 5.70518e-07)
(5.1041e-05 0 -3.57816e-07)
(5.38687e-05 0 -1.32378e-06)
(5.49565e-05 0 -1.82015e-06)
(5.73097e-05 0 -4.94205e-07)
(5.80777e-05 0 -1.16314e-06)
(6.01093e-05 0 4.18528e-07)
(6.16315e-05 0 -3.36141e-07)
(6.4486e-05 0 8.15682e-07)
(6.604e-05 0 6.99754e-07)
(6.65558e-05 0 5.18261e-07)
(6.67463e-05 0 9.52299e-07)
(6.57732e-05 0 2.31913e-06)
(6.67055e-05 0 2.45889e-06)
(6.79389e-05 0 4.14134e-06)
(7.00404e-05 0 2.45369e-06)
(6.80301e-05 0 3.29372e-06)
(6.95142e-05 0 5.16115e-06)
(6.94687e-05 0 5.49277e-06)
(7.1523e-05 0 3.12237e-06)
(7.02621e-05 0 3.00435e-06)
(6.83072e-05 0 4.69779e-06)
(7.0179e-05 0 3.86903e-06)
(6.9003e-05 0 1.38796e-06)
(6.73279e-05 0 2.78178e-06)
(6.90809e-05 0 1.79109e-06)
(6.71224e-05 0 2.98969e-06)
(6.8116e-05 0 2.57956e-06)
(6.77449e-05 0 1.99915e-06)
(6.52246e-05 0 3.61318e-06)
(6.51128e-05 0 2.18296e-06)
(6.43781e-05 0 2.82741e-06)
(6.53213e-05 0 1.38407e-06)
(6.44425e-05 0 1.70352e-06)
(6.25378e-05 0 2.18147e-06)
(6.29541e-05 0 1.26865e-06)
(6.19938e-05 0 1.41876e-06)
(6.02386e-05 0 1.83849e-06)
(5.93889e-05 0 1.52334e-06)
(5.84867e-05 0 1.46327e-06)
(5.73221e-05 0 1.54278e-06)
(5.68206e-05 0 1.09652e-06)
(5.58326e-05 0 1.14726e-06)
(5.45329e-05 0 1.21671e-06)
(5.30067e-05 0 1.2463e-06)
(5.11494e-05 0 1.32991e-06)
(5.06467e-05 0 1.07206e-06)
(4.93394e-05 0 1.09506e-06)
(4.76635e-05 0 1.27891e-06)
(4.68065e-05 0 1.04986e-06)
(4.54632e-05 0 1.08564e-06)
(4.43568e-05 0 1.12835e-06)
(4.30244e-05 0 1.34328e-06)
(4.1702e-05 0 1.10884e-06)
(4.01308e-05 0 1.10665e-06)
(3.93493e-05 0 9.45811e-07)
(3.77808e-05 0 9.44193e-07)
(3.67696e-05 0 7.54778e-07)
(3.60402e-05 0 7.97665e-07)
(3.48081e-05 0 8.3522e-07)
(3.35776e-05 0 8.08626e-07)
(3.24556e-05 0 6.61661e-07)
(3.17801e-05 0 5.6653e-07)
(3.04838e-05 0 6.46313e-07)
(2.94274e-05 0 5.29037e-07)
(2.87222e-05 0 5.24529e-07)
(2.77306e-05 0 5.36576e-07)
(2.67485e-05 0 5.62346e-07)
(2.60215e-05 0 5.14712e-07)
(2.5092e-05 0 5.29034e-07)
(2.41664e-05 0 5.55396e-07)
(2.34059e-05 0 5.24475e-07)
(2.26288e-05 0 4.71179e-07)
(2.18223e-05 0 4.34402e-07)
(2.1088e-05 0 4.06396e-07)
(2.04268e-05 0 3.95094e-07)
(1.9708e-05 0 3.29881e-07)
(1.91474e-05 0 4.06603e-07)
(1.84776e-05 0 5.8967e-07)
(1.77344e-05 0 6.00433e-07)
(1.70996e-05 0 5.75959e-07)
(1.66375e-05 0 5.46229e-07)
(1.60035e-05 0 5.14617e-07)
(1.5393e-05 0 5.26257e-07)
(1.48652e-05 0 5.06402e-07)
(1.44147e-05 0 4.82747e-07)
(1.3862e-05 0 4.68294e-07)
(1.33344e-05 0 4.57198e-07)
(1.28423e-05 0 4.56914e-07)
(1.24435e-05 0 4.36602e-07)
(1.20551e-05 0 4.35124e-07)
(1.15743e-05 0 4.39108e-07)
(1.11766e-05 0 4.35218e-07)
(1.08279e-05 0 4.26142e-07)
(1.04837e-05 0 4.28271e-07)
(1.001e-05 0 4.32411e-07)
(9.66503e-06 0 4.38849e-07)
(9.40804e-06 0 4.27788e-07)
(9.15095e-06 0 4.34108e-07)
(8.72968e-06 0 4.50029e-07)
(8.38531e-06 0 4.67112e-07)
(8.07618e-06 0 4.58929e-07)
(7.78944e-06 0 4.8523e-07)
(7.42893e-06 0 4.85314e-07)
(7.23226e-06 0 4.71426e-07)
(7.05159e-06 0 4.64664e-07)
(6.77193e-06 0 5.02643e-07)
(6.40992e-06 0 5.15957e-07)
(6.18871e-06 0 5.25844e-07)
(6.06657e-06 0 5.36149e-07)
(5.72716e-06 0 5.48388e-07)
(5.54893e-06 0 5.46519e-07)
(5.35332e-06 0 5.47994e-07)
(5.40369e-06 0 4.74032e-07)
(5.1209e-06 0 4.74523e-07)
(4.80356e-06 0 4.9359e-07)
(4.66671e-06 0 4.54211e-07)
(4.57802e-06 0 4.31731e-07)
(4.46494e-06 0 4.19082e-07)
(4.23639e-06 0 4.1875e-07)
(4.00211e-06 0 4.25934e-07)
(3.9034e-06 0 4.01261e-07)
(3.82687e-06 0 3.75079e-07)
(3.72768e-06 0 3.7144e-07)
(3.59344e-06 0 3.5609e-07)
(3.48774e-06 0 3.4638e-07)
(3.4192e-06 0 3.39156e-07)
(3.21687e-06 0 3.52245e-07)
(2.98651e-06 0 3.80271e-07)
(2.89843e-06 0 3.77518e-07)
(2.80014e-06 0 3.7623e-07)
(2.631e-06 0 4.40599e-07)
(2.70943e-06 0 -1.6885e-07)
(2.28558e-06 0 5.08097e-08)
(2.45067e-06 0 -1.19305e-07)
(2.46513e-06 0 -1.92193e-07)
(2.30971e-06 0 -1.71757e-07)
(2.27335e-06 0 -2.00325e-07)
(2.19624e-06 0 -1.54939e-07)
(2.12185e-06 0 -2.10949e-07)
(2.10549e-06 0 -2.56083e-07)
(2.04263e-06 0 -3.26435e-07)
(1.90183e-06 0 -1.80347e-07)
(1.92678e-06 0 -2.96131e-07)
(1.80544e-06 0 -3.08738e-07)
(1.73356e-06 0 -2.51604e-07)
(1.67828e-06 0 -2.39088e-07)
(1.61224e-06 0 -2.26878e-07)
(1.61478e-06 0 -2.95797e-07)
(1.49833e-06 0 -2.45028e-07)
(1.47112e-06 0 -2.15935e-07)
(1.40714e-06 0 -1.66484e-07)
(1.41384e-06 0 -2.40164e-07)
(1.35913e-06 0 -3.17775e-07)
(1.26149e-06 0 -2.60563e-07)
(1.3133e-06 0 -2.92371e-07)
(1.23077e-06 0 -1.9528e-07)
(1.13901e-06 0 -1.49631e-07)
(1.16434e-06 0 -1.70341e-07)
(1.05413e-06 0 -1.14893e-07)
(1.14348e-06 0 -1.89536e-07)
(1.12052e-06 0 -1.40972e-07)
(1.11398e-06 0 -1.84797e-07)
(1.16894e-06 0 -8.68822e-08)
(1.099e-06 0 -9.38752e-08)
(9.52997e-07 0 -1.16938e-07)
(9.42889e-07 0 -2.04916e-07)
(9.61011e-07 0 -6.37341e-08)
(9.08259e-07 0 -1.86563e-07)
(8.67428e-07 0 -7.35483e-08)
(8.2311e-07 0 -1.86293e-07)
(8.00122e-07 0 -1.43152e-07)
(8.14469e-07 0 -1.77879e-07)
(8.05265e-07 0 -7.40454e-08)
(7.22722e-07 0 -1.85445e-07)
(7.51216e-07 0 -1.72705e-07)
(7.66252e-07 0 -1.12361e-07)
(7.42061e-07 0 -9.0896e-08)
(6.6183e-07 0 -1.53795e-07)
(6.45448e-07 0 -1.42757e-07)
(6.53383e-07 0 -1.47459e-07)
(5.78313e-07 0 -1.06316e-07)
(5.00935e-07 0 -1.31216e-07)
(4.44164e-07 0 -1.43912e-07)
(5.46576e-07 0 -2.25769e-07)
(5.60315e-07 0 -1.19525e-07)
(4.22109e-07 0 -1.7373e-07)
(5.11467e-07 0 1.66957e-07)
(6.96249e-07 0 1.42043e-07)
(6.48918e-07 0 2.06801e-07)
(5.56337e-07 0 1.91924e-07)
(5.15984e-07 0 1.55888e-07)
(5.24891e-07 0 1.44138e-07)
(5.04573e-07 0 1.28486e-07)
(4.70928e-07 0 1.38649e-07)
(4.31133e-07 0 1.14225e-07)
(4.18853e-07 0 1.04372e-07)
(4.45609e-07 0 1.02219e-07)
(4.33257e-07 0 1.12782e-07)
(4.22391e-07 0 9.37836e-08)
(3.88081e-07 0 9.2454e-08)
(3.64491e-07 0 1.00408e-07)
(2.79019e-07 0 1.17294e-07)
(2.46745e-07 0 9.7719e-08)
(2.50524e-07 0 9.89496e-08)
(3.32791e-07 0 9.32794e-08)
(3.26449e-07 0 1.02655e-07)
(3.40938e-07 0 8.29023e-08)
(2.61092e-07 0 9.78076e-08)
(3.9516e-07 0 7.50909e-08)
(2.4729e-07 0 1.20696e-07)
(1.89036e-07 0 1.12457e-07)
(1.68541e-07 0 1.20255e-07)
(3.09582e-07 0 1.11238e-07)
(1.10071e-07 0 2.86233e-07)
(8.73701e-08 0 -6.55021e-08)
(6.8727e-07 0 -4.59092e-07)
(5.08236e-07 0 1.64363e-07)
(4.09339e-07 0 4.53599e-08)
(3.83507e-07 0 1.14661e-07)
(3.75536e-07 0 9.12154e-08)
(3.43617e-07 0 8.38999e-08)
(3.61434e-07 0 7.63838e-08)
(3.10819e-07 0 1.13959e-07)
(2.65115e-07 0 1.15853e-07)
(3.11149e-07 0 2.23472e-08)
(3.50089e-07 0 2.90854e-08)
(3.60864e-07 0 8.20351e-08)
(3.26399e-07 0 4.88229e-08)
(3.364e-07 0 7.18313e-08)
(3.28936e-07 0 5.2144e-08)
(2.76654e-07 0 1.31474e-07)
(3.04373e-07 0 5.53392e-09)
(3.44081e-07 0 8.67953e-08)
(2.86537e-07 0 7.81661e-08)
(2.69905e-07 0 1.12177e-07)
(1.99225e-07 0 1.15699e-07)
(2.69116e-07 0 4.3273e-08)
(2.94364e-07 0 6.1261e-08)
(3.19275e-07 0 5.48704e-08)
(2.98168e-07 0 1.03253e-07)
(2.49821e-07 0 1.94862e-08)
(-3.69717e-09 0 2.00917e-07)
(3.71121e-08 0 1.469e-07)
(4.2683e-08 0 1.15926e-07)
(1.56106e-08 0 1.10021e-07)
(2.73242e-09 0 1.023e-07)
(4.33963e-10 0 1.13954e-07)
(-2.22399e-08 0 1.34741e-07)
(-6.62162e-08 0 1.41766e-07)
(-3.02081e-08 0 1.23912e-07)
(1.1948e-08 0 1.12687e-07)
(2.64195e-08 0 1.05859e-07)
(-4.30144e-08 0 1.34611e-07)
(-5.03637e-08 0 1.27854e-07)
(-3.91357e-08 0 1.44787e-07)
(-5.11225e-08 0 1.48469e-07)
(-2.8091e-08 0 1.44031e-07)
(-1.27393e-07 0 1.85903e-07)
(-2.17753e-08 0 1.65986e-07)
(-1.08202e-07 0 1.9436e-07)
(-1.07648e-08 0 1.57643e-07)
(-3.74909e-08 0 1.54829e-07)
(1.55681e-08 0 1.47442e-07)
(-1.13003e-09 0 1.40023e-07)
(-3.15059e-08 0 1.40218e-07)
(-2.07939e-08 0 1.28963e-07)
(-8.61596e-08 0 1.60815e-07)
(-3.80865e-08 0 1.31464e-07)
(-3.18803e-08 0 1.46857e-07)
(-7.40304e-08 0 1.46689e-07)
(-6.76502e-08 0 1.30301e-07)
(-4.44473e-08 0 1.34978e-07)
(-7.69942e-08 0 1.69619e-07)
(-1.47908e-07 0 2.75949e-07)
(-5.77886e-07 0 -9.78363e-07)
(4.04213e-07 0 2.33182e-07)
(3.75908e-07 0 5.00527e-08)
(2.17103e-07 0 4.96531e-08)
(2.30559e-07 0 4.65794e-08)
(3.22238e-07 0 4.2197e-08)
(2.87434e-07 0 4.78065e-08)
(2.96548e-07 0 5.62887e-08)
(2.95271e-07 0 4.02314e-08)
(2.39494e-07 0 2.55492e-08)
(9.36229e-08 0 6.03199e-08)
(1.6952e-07 0 4.02559e-08)
(1.5596e-07 0 5.15299e-08)
(2.82572e-07 0 3.6293e-08)
(1.90942e-07 0 4.93224e-08)
(1.81029e-07 0 5.11496e-08)
(5.3959e-08 0 7.66525e-08)
(2.3796e-08 0 9.14853e-08)
(5.98997e-10 0 1.21415e-07)
(-6.3229e-08 0 1.58092e-07)
(-6.40763e-08 0 1.98392e-07)
(1.08737e-07 0 -1.63427e-07)
(-1.88141e-07 0 9.18436e-08)
(1.78768e-08 0 2.18475e-08)
(-3.85784e-09 0 1.08718e-07)
(5.48036e-08 0 2.1096e-08)
(3.70886e-08 0 4.08269e-08)
(4.6674e-08 0 3.32452e-08)
(6.3094e-08 0 4.04797e-08)
(-8.92188e-09 0 9.40236e-08)